n -t * -s 0  -x 117.348588283292 -y 252.358242867169 -Z 0 -z 20  -v circle -c green
n -t * -s 1  -x 296.962035882311 -y 166.63198630778399 -Z 0 -z 20  -v circle -c green
n -t * -s 2  -x 306.597347434668 -y 200.088126961684 -Z 0 -z 20  -v circle -c green
n -t * -s 3  -x 290.47245728277397 -y 483.84592603891002 -Z 0 -z 20  -v circle -c green
n -t * -s 4  -x 347.86503362840199 -y 243.51503086535399 -Z 0 -z 20  -v circle -c green
n -t * -s 5  -x 356.57557616190098 -y 80.192501815045006 -Z 0 -z 20  -v circle -c green
n -t * -s 6  -x 440.146563702842 -y 69.417605162333004 -Z 0 -z 20  -v circle -c green
n -t * -s 7  -x 481.33285451150402 -y 372.10577072063501 -Z 0 -z 20  -v circle -c green
n -t * -s 8  -x 500 -y 0 -Z 0 -z 20  -v circle -c green
n -t * -s 9  -x 0 -y 500 -Z 0 -z 20  -v circle -c green
V -t * -v 1.0a5 -a 0
W -t * -x 500 -y 500
A -t * -n 1 -p 0 -o 0x7fffffff -c 30 -a 1
A -t * -h 1 -m 1073741823 -s 0
n -t 0.000000 -s 0 -x 117.348588 -y 252.358243 -U 16.281638 -V -14.233152 -T 17.001395
n -t 0.000000 -s 1 -x 296.962036 -y 166.631986 -U -4.763058 -V -11.267797 -T 9.661822
n -t 0.000000 -s 2 -x 306.597347 -y 200.088127 -U -5.752799 -V 22.889513 -T 3.838473
n -t 0.000000 -s 3 -x 290.472457 -y 483.845926 -U -10.540044 -V -19.808738 -T 11.385312
n -t 0.000000 -s 4 -x 347.865034 -y 243.515031 -U -30.418263 -V 25.147309 -T 7.523649
n -t 0.000000 -s 5 -x 356.575576 -y 80.192502 -U -13.002718 -V 2.862879 -T 25.805726
n -t 0.000000 -s 6 -x 440.146564 -y 69.417605 -U -10.502091 -V 13.887029 -T 10.913932
n -t 0.000000 -s 7 -x 481.332855 -y 372.105771 -U -8.818331 -V -14.880838 -T 12.433823
+ -t 2.556838879 -s 8 -d -1 -p cbr -e 512 -c 2 -a 0 -i 0 -k AGT 
- -t 2.556838879 -s 8 -d -1 -p cbr -e 512 -c 2 -a 0 -i 0 -k AGT
h -t 2.556838879 -s 8 -d -1 -p cbr -e 512 -c 2 -a 0 -i 0 -k AGT
+ -t 2.556838879 -s 8 -d -1 -p AODV -e 52 -c 2 -a 0 -i 0 -k RTR 
- -t 2.556838879 -s 8 -d -1 -p AODV -e 52 -c 2 -a 0 -i 0 -k RTR
h -t 2.556838879 -s 8 -d -1 -p AODV -e 52 -c 2 -a 0 -i 0 -k RTR
+ -t 2.556953879 -s 8 -d -1 -p AODV -e 110 -c 2 -a 0 -i 0 -k MAC 
- -t 2.556953879 -s 8 -d -1 -p AODV -e 110 -c 2 -a 0 -i 0 -k MAC
h -t 2.556953879 -s 8 -d -1 -p AODV -e 110 -c 2 -a 0 -i 0 -k MAC
r -t 2.557834332 -s 6 -d -1 -p AODV -e 52 -c 2 -a 0 -i 0 -k MAC
r -t 2.557834536 -s 5 -d -1 -p AODV -e 52 -c 2 -a 0 -i 0 -k MAC
r -t 2.557834731 -s 1 -d -1 -p AODV -e 52 -c 2 -a 0 -i 0 -k MAC
r -t 2.557834985 -s 2 -d -1 -p AODV -e 52 -c 2 -a 0 -i 0 -k MAC
r -t 2.557835001 -s 7 -d -1 -p AODV -e 52 -c 2 -a 0 -i 0 -k MAC
r -t 2.557835159 -s 4 -d -1 -p AODV -e 52 -c 2 -a 0 -i 0 -k MAC
r -t 2.557859332 -s 6 -d -1 -p AODV -e 52 -c 2 -a 0 -i 0 -k RTR
r -t 2.557859536 -s 5 -d -1 -p AODV -e 52 -c 2 -a 0 -i 0 -k RTR
r -t 2.557859731 -s 1 -d -1 -p AODV -e 52 -c 2 -a 0 -i 0 -k RTR
r -t 2.557859985 -s 2 -d -1 -p AODV -e 52 -c 2 -a 0 -i 0 -k RTR
r -t 2.557860001 -s 7 -d -1 -p AODV -e 52 -c 2 -a 0 -i 0 -k RTR
r -t 2.557860159 -s 4 -d -1 -p AODV -e 52 -c 2 -a 0 -i 0 -k RTR
+ -t 2.558740559 -s 6 -d -1 -p AODV -e 52 -c 2 -a 0 -i 0 -k RTR 
- -t 2.558740559 -s 6 -d -1 -p AODV -e 52 -c 2 -a 0 -i 0 -k RTR
h -t 2.558740559 -s 6 -d -1 -p AODV -e 52 -c 2 -a 0 -i 0 -k RTR
+ -t 2.559175559 -s 6 -d -1 -p AODV -e 110 -c 2 -a 0 -i 0 -k MAC 
- -t 2.559175559 -s 6 -d -1 -p AODV -e 110 -c 2 -a 0 -i 0 -k MAC
h -t 2.559175559 -s 6 -d -1 -p AODV -e 110 -c 2 -a 0 -i 0 -k MAC
r -t 2.560055865 -s 5 -d -1 -p AODV -e 52 -c 2 -a 0 -i 0 -k MAC
r -t 2.560056001 -s 1 -d -1 -p AODV -e 52 -c 2 -a 0 -i 0 -k MAC
r -t 2.560056013 -s 8 -d -1 -p AODV -e 52 -c 2 -a 0 -i 0 -k MAC
r -t 2.560056212 -s 2 -d -1 -p AODV -e 52 -c 2 -a 0 -i 0 -k MAC
r -t 2.560056338 -s 7 -d -1 -p AODV -e 52 -c 2 -a 0 -i 0 -k MAC
r -t 2.560056387 -s 4 -d -1 -p AODV -e 52 -c 2 -a 0 -i 0 -k MAC
r -t 2.560056484 -s 0 -d -1 -p AODV -e 52 -c 2 -a 0 -i 0 -k MAC
r -t 2.560056762 -s 3 -d -1 -p AODV -e 52 -c 2 -a 0 -i 0 -k MAC
r -t 2.560080865 -s 5 -d -1 -p AODV -e 52 -c 2 -a 0 -i 0 -k RTR
r -t 2.560081001 -s 1 -d -1 -p AODV -e 52 -c 2 -a 0 -i 0 -k RTR
r -t 2.560081013 -s 8 -d -1 -p AODV -e 52 -c 2 -a 0 -i 0 -k RTR
r -t 2.560081212 -s 2 -d -1 -p AODV -e 52 -c 2 -a 0 -i 0 -k RTR
r -t 2.560081338 -s 7 -d -1 -p AODV -e 52 -c 2 -a 0 -i 0 -k RTR
r -t 2.560081387 -s 4 -d -1 -p AODV -e 52 -c 2 -a 0 -i 0 -k RTR
r -t 2.560081484 -s 0 -d -1 -p AODV -e 52 -c 2 -a 0 -i 0 -k RTR
r -t 2.560081762 -s 3 -d -1 -p AODV -e 52 -c 2 -a 0 -i 0 -k RTR
+ -t 2.560206177 -s 4 -d -1 -p AODV -e 52 -c 2 -a 0 -i 0 -k RTR 
- -t 2.560206177 -s 4 -d -1 -p AODV -e 52 -c 2 -a 0 -i 0 -k RTR
h -t 2.560206177 -s 4 -d -1 -p AODV -e 52 -c 2 -a 0 -i 0 -k RTR
+ -t 2.560821177 -s 4 -d -1 -p AODV -e 110 -c 2 -a 0 -i 0 -k MAC 
- -t 2.560821177 -s 4 -d -1 -p AODV -e 110 -c 2 -a 0 -i 0 -k MAC
h -t 2.560821177 -s 4 -d -1 -p AODV -e 110 -c 2 -a 0 -i 0 -k MAC
+ -t 2.560989603 -s 2 -d -1 -p AODV -e 52 -c 2 -a 0 -i 0 -k RTR 
- -t 2.560989603 -s 2 -d -1 -p AODV -e 52 -c 2 -a 0 -i 0 -k RTR
h -t 2.560989603 -s 2 -d -1 -p AODV -e 52 -c 2 -a 0 -i 0 -k RTR
r -t 2.561701356 -s 2 -d -1 -p AODV -e 52 -c 2 -a 0 -i 0 -k MAC
r -t 2.561701595 -s 3 -d -1 -p AODV -e 52 -c 2 -a 0 -i 0 -k MAC
r -t 2.561701657 -s 0 -d -1 -p AODV -e 52 -c 2 -a 0 -i 0 -k MAC
r -t 2.561701746 -s 1 -d -1 -p AODV -e 52 -c 2 -a 0 -i 0 -k MAC
r -t 2.561701812 -s 7 -d -1 -p AODV -e 52 -c 2 -a 0 -i 0 -k MAC
r -t 2.561701933 -s 5 -d -1 -p AODV -e 52 -c 2 -a 0 -i 0 -k MAC
r -t 2.561702005 -s 6 -d -1 -p AODV -e 52 -c 2 -a 0 -i 0 -k MAC
r -t 2.561702281 -s 9 -d -1 -p AODV -e 52 -c 2 -a 0 -i 0 -k MAC
r -t 2.561702458 -s 8 -d -1 -p AODV -e 52 -c 2 -a 0 -i 0 -k MAC
+ -t 2.561723216 -s 3 -d -1 -p AODV -e 52 -c 2 -a 0 -i 0 -k RTR 
- -t 2.561723216 -s 3 -d -1 -p AODV -e 52 -c 2 -a 0 -i 0 -k RTR
h -t 2.561723216 -s 3 -d -1 -p AODV -e 52 -c 2 -a 0 -i 0 -k RTR
r -t 2.561726356 -s 2 -d -1 -p AODV -e 52 -c 2 -a 0 -i 0 -k RTR
r -t 2.561726595 -s 3 -d -1 -p AODV -e 52 -c 2 -a 0 -i 0 -k RTR
r -t 2.561726657 -s 0 -d -1 -p AODV -e 52 -c 2 -a 0 -i 0 -k RTR
r -t 2.561726746 -s 1 -d -1 -p AODV -e 52 -c 2 -a 0 -i 0 -k RTR
r -t 2.561726812 -s 7 -d -1 -p AODV -e 52 -c 2 -a 0 -i 0 -k RTR
r -t 2.561726933 -s 5 -d -1 -p AODV -e 52 -c 2 -a 0 -i 0 -k RTR
r -t 2.561727005 -s 6 -d -1 -p AODV -e 52 -c 2 -a 0 -i 0 -k RTR
r -t 2.561727281 -s 9 -d -1 -p AODV -e 52 -c 2 -a 0 -i 0 -k RTR
+ -t 2.561727281 -s 9 -d 4 -p AODV -e 44 -c 2 -a 0 -i 0 -k RTR 
- -t 2.561727281 -s 9 -d 4 -p AODV -e 44 -c 2 -a 0 -i 0 -k RTR
h -t 2.561727281 -s 9 -d 4 -p AODV -e 44 -c 2 -a 0 -i 0 -k RTR
r -t 2.561727458 -s 8 -d -1 -p AODV -e 52 -c 2 -a 0 -i 0 -k RTR
+ -t 2.561911356 -s 2 -d -1 -p AODV -e 110 -c 2 -a 0 -i 0 -k MAC 
- -t 2.561911356 -s 2 -d -1 -p AODV -e 110 -c 2 -a 0 -i 0 -k MAC
h -t 2.561911356 -s 2 -d -1 -p AODV -e 110 -c 2 -a 0 -i 0 -k MAC
+ -t 2.562271270 -s 5 -d -1 -p AODV -e 52 -c 2 -a 0 -i 0 -k RTR 
- -t 2.562271270 -s 5 -d -1 -p AODV -e 52 -c 2 -a 0 -i 0 -k RTR
h -t 2.562271270 -s 5 -d -1 -p AODV -e 52 -c 2 -a 0 -i 0 -k RTR
r -t 2.562791536 -s 4 -d -1 -p AODV -e 52 -c 2 -a 0 -i 0 -k MAC
r -t 2.562791760 -s 1 -d -1 -p AODV -e 52 -c 2 -a 0 -i 0 -k MAC
r -t 2.562791822 -s 0 -d -1 -p AODV -e 52 -c 2 -a 0 -i 0 -k MAC
r -t 2.562791937 -s 5 -d -1 -p AODV -e 52 -c 2 -a 0 -i 0 -k MAC
r -t 2.562791945 -s 3 -d -1 -p AODV -e 52 -c 2 -a 0 -i 0 -k MAC
r -t 2.562791967 -s 7 -d -1 -p AODV -e 52 -c 2 -a 0 -i 0 -k MAC
r -t 2.562792009 -s 6 -d -1 -p AODV -e 52 -c 2 -a 0 -i 0 -k MAC
r -t 2.562792463 -s 8 -d -1 -p AODV -e 52 -c 2 -a 0 -i 0 -k MAC
r -t 2.562792619 -s 9 -d -1 -p AODV -e 52 -c 2 -a 0 -i 0 -k MAC
r -t 2.562816536 -s 4 -d -1 -p AODV -e 52 -c 2 -a 0 -i 0 -k RTR
r -t 2.562816760 -s 1 -d -1 -p AODV -e 52 -c 2 -a 0 -i 0 -k RTR
r -t 2.562816822 -s 0 -d -1 -p AODV -e 52 -c 2 -a 0 -i 0 -k RTR
r -t 2.562816937 -s 5 -d -1 -p AODV -e 52 -c 2 -a 0 -i 0 -k RTR
r -t 2.562816945 -s 3 -d -1 -p AODV -e 52 -c 2 -a 0 -i 0 -k RTR
r -t 2.562816967 -s 7 -d -1 -p AODV -e 52 -c 2 -a 0 -i 0 -k RTR
r -t 2.562817009 -s 6 -d -1 -p AODV -e 52 -c 2 -a 0 -i 0 -k RTR
r -t 2.562817463 -s 8 -d -1 -p AODV -e 52 -c 2 -a 0 -i 0 -k RTR
r -t 2.562817619 -s 9 -d -1 -p AODV -e 52 -c 2 -a 0 -i 0 -k RTR
+ -t 2.562817619 -s 9 -d 4 -p AODV -e 44 -c 2 -a 0 -i 0 -k RTR 
- -t 2.562817619 -s 9 -d 4 -p AODV -e 44 -c 2 -a 0 -i 0 -k RTR
h -t 2.562817619 -s 9 -d 4 -p AODV -e 44 -c 2 -a 0 -i 0 -k RTR
d -t 2.562817619 -s 9 -d 4 -p AODV -e 44 -c 2 -a 0 -i 0 -k IFQ
+ -t 2.562901945 -s 3 -d -1 -p AODV -e 110 -c 2 -a 0 -i 0 -k MAC 
- -t 2.562901945 -s 3 -d -1 -p AODV -e 110 -c 2 -a 0 -i 0 -k MAC
h -t 2.562901945 -s 3 -d -1 -p AODV -e 110 -c 2 -a 0 -i 0 -k MAC
r -t 2.563782363 -s 4 -d -1 -p AODV -e 52 -c 2 -a 0 -i 0 -k MAC
r -t 2.563782534 -s 2 -d -1 -p AODV -e 52 -c 2 -a 0 -i 0 -k MAC
r -t 2.563782675 -s 7 -d -1 -p AODV -e 52 -c 2 -a 0 -i 0 -k MAC
r -t 2.563782749 -s 0 -d -1 -p AODV -e 52 -c 2 -a 0 -i 0 -k MAC
r -t 2.563782851 -s 9 -d -1 -p AODV -e 52 -c 2 -a 0 -i 0 -k MAC
r -t 2.563782932 -s 1 -d -1 -p AODV -e 52 -c 2 -a 0 -i 0 -k MAC
r -t 2.563783114 -s 5 -d -1 -p AODV -e 52 -c 2 -a 0 -i 0 -k MAC
r -t 2.563783147 -s 6 -d -1 -p AODV -e 52 -c 2 -a 0 -i 0 -k MAC
r -t 2.563807363 -s 4 -d -1 -p AODV -e 52 -c 2 -a 0 -i 0 -k RTR
r -t 2.563807534 -s 2 -d -1 -p AODV -e 52 -c 2 -a 0 -i 0 -k RTR
r -t 2.563807675 -s 7 -d -1 -p AODV -e 52 -c 2 -a 0 -i 0 -k RTR
r -t 2.563807749 -s 0 -d -1 -p AODV -e 52 -c 2 -a 0 -i 0 -k RTR
r -t 2.563807851 -s 9 -d -1 -p AODV -e 52 -c 2 -a 0 -i 0 -k RTR
+ -t 2.563807851 -s 9 -d 4 -p AODV -e 44 -c 2 -a 0 -i 0 -k RTR 
- -t 2.563807851 -s 9 -d 4 -p AODV -e 44 -c 2 -a 0 -i 0 -k RTR
h -t 2.563807851 -s 9 -d 4 -p AODV -e 44 -c 2 -a 0 -i 0 -k RTR
d -t 2.563807851 -s 9 -d 4 -p AODV -e 44 -c 2 -a 0 -i 0 -k IFQ
r -t 2.563807932 -s 1 -d -1 -p AODV -e 52 -c 2 -a 0 -i 0 -k RTR
r -t 2.563808114 -s 5 -d -1 -p AODV -e 52 -c 2 -a 0 -i 0 -k RTR
r -t 2.563808147 -s 6 -d -1 -p AODV -e 52 -c 2 -a 0 -i 0 -k RTR
+ -t 2.563892851 -s 9 -d -1 -p ARP -e 86 -c 2 -a 0 -i 0 -k MAC 
- -t 2.563892851 -s 9 -d -1 -p ARP -e 86 -c 2 -a 0 -i 0 -k MAC
h -t 2.563892851 -s 9 -d -1 -p ARP -e 86 -c 2 -a 0 -i 0 -k MAC
+ -t 2.564253114 -s 5 -d -1 -p AODV -e 110 -c 2 -a 0 -i 0 -k MAC 
- -t 2.564253114 -s 5 -d -1 -p AODV -e 110 -c 2 -a 0 -i 0 -k MAC
h -t 2.564253114 -s 5 -d -1 -p AODV -e 110 -c 2 -a 0 -i 0 -k MAC
d -t 2.564253695 -s 2 -d -1 -p ARP -e 86 -c 2 -a 0 -i 0 -k MAC
d -t 2.564253809 -s 0 -d -1 -p ARP -e 86 -c 2 -a 0 -i 0 -k MAC
d -t 2.564253870 -s 4 -d -1 -p ARP -e 86 -c 2 -a 0 -i 0 -k MAC
d -t 2.564254283 -s 3 -d -1 -p ARP -e 86 -c 2 -a 0 -i 0 -k MAC
+ -t 2.564830851 -s 9 -d -1 -p ARP -e 86 -c 2 -a 0 -i 0 -k MAC 
- -t 2.564830851 -s 9 -d -1 -p ARP -e 86 -c 2 -a 0 -i 0 -k MAC
h -t 2.564830851 -s 9 -d -1 -p ARP -e 86 -c 2 -a 0 -i 0 -k MAC
d -t 2.564831757 -s 3 -d -1 -p AODV -e 110 -c 2 -a 0 -i 0 -k MAC
d -t 2.564831937 -s 0 -d -1 -p AODV -e 110 -c 2 -a 0 -i 0 -k MAC
d -t 2.564831955 -s 4 -d -1 -p AODV -e 110 -c 2 -a 0 -i 0 -k MAC
r -t 2.565133325 -s 1 -d -1 -p AODV -e 52 -c 2 -a 0 -i 0 -k MAC
r -t 2.565133420 -s 6 -d -1 -p AODV -e 52 -c 2 -a 0 -i 0 -k MAC
d -t 2.565133695 -s 2 -d -1 -p AODV -e 110 -c 2 -a 0 -i 0 -k MAC
r -t 2.565133772 -s 8 -d -1 -p AODV -e 52 -c 2 -a 0 -i 0 -k MAC
r -t 2.565134052 -s 7 -d -1 -p AODV -e 52 -c 2 -a 0 -i 0 -k MAC
r -t 2.565158325 -s 1 -d -1 -p AODV -e 52 -c 2 -a 0 -i 0 -k RTR
r -t 2.565158420 -s 6 -d -1 -p AODV -e 52 -c 2 -a 0 -i 0 -k RTR
r -t 2.565158772 -s 8 -d -1 -p AODV -e 52 -c 2 -a 0 -i 0 -k RTR
r -t 2.565159052 -s 7 -d -1 -p AODV -e 52 -c 2 -a 0 -i 0 -k RTR
d -t 2.565519757 -s 3 -d -1 -p ARP -e 86 -c 2 -a 0 -i 0 -k MAC
d -t 2.565519937 -s 0 -d -1 -p ARP -e 86 -c 2 -a 0 -i 0 -k MAC
d -t 2.565519955 -s 4 -d -1 -p ARP -e 86 -c 2 -a 0 -i 0 -k MAC
+ -t 2.565588851 -s 9 -d -1 -p ARP -e 86 -c 2 -a 0 -i 0 -k MAC 
- -t 2.565588851 -s 9 -d -1 -p ARP -e 86 -c 2 -a 0 -i 0 -k MAC
h -t 2.565588851 -s 9 -d -1 -p ARP -e 86 -c 2 -a 0 -i 0 -k MAC
+ -t 2.565851285 -s 1 -d -1 -p AODV -e 52 -c 2 -a 0 -i 0 -k RTR 
- -t 2.565851285 -s 1 -d -1 -p AODV -e 52 -c 2 -a 0 -i 0 -k RTR
h -t 2.565851285 -s 1 -d -1 -p AODV -e 52 -c 2 -a 0 -i 0 -k RTR
+ -t 2.566024761 -s 7 -d -1 -p AODV -e 52 -c 2 -a 0 -i 0 -k RTR 
- -t 2.566024761 -s 7 -d -1 -p AODV -e 52 -c 2 -a 0 -i 0 -k RTR
h -t 2.566024761 -s 7 -d -1 -p AODV -e 52 -c 2 -a 0 -i 0 -k RTR
+ -t 2.566166285 -s 1 -d -1 -p AODV -e 110 -c 2 -a 0 -i 0 -k MAC 
- -t 2.566166285 -s 1 -d -1 -p AODV -e 110 -c 2 -a 0 -i 0 -k MAC
h -t 2.566166285 -s 1 -d -1 -p AODV -e 110 -c 2 -a 0 -i 0 -k MAC
d -t 2.566166689 -s 2 -d -1 -p ARP -e 86 -c 2 -a 0 -i 0 -k MAC
d -t 2.566166778 -s 0 -d -1 -p ARP -e 86 -c 2 -a 0 -i 0 -k MAC
d -t 2.566166855 -s 4 -d -1 -p ARP -e 86 -c 2 -a 0 -i 0 -k MAC
d -t 2.566167272 -s 3 -d -1 -p ARP -e 86 -c 2 -a 0 -i 0 -k MAC
r -t 2.567046496 -s 5 -d -1 -p AODV -e 52 -c 2 -a 0 -i 0 -k MAC
d -t 2.567046689 -s 2 -d -1 -p AODV -e 110 -c 2 -a 0 -i 0 -k MAC
r -t 2.567046727 -s 6 -d -1 -p AODV -e 52 -c 2 -a 0 -i 0 -k MAC
d -t 2.567046778 -s 0 -d -1 -p AODV -e 110 -c 2 -a 0 -i 0 -k MAC
d -t 2.567046855 -s 4 -d -1 -p AODV -e 110 -c 2 -a 0 -i 0 -k MAC
r -t 2.567047137 -s 8 -d -1 -p AODV -e 52 -c 2 -a 0 -i 0 -k MAC
r -t 2.567047159 -s 7 -d -1 -p AODV -e 52 -c 2 -a 0 -i 0 -k MAC
d -t 2.567047272 -s 3 -d -1 -p AODV -e 110 -c 2 -a 0 -i 0 -k MAC
r -t 2.567071496 -s 5 -d -1 -p AODV -e 52 -c 2 -a 0 -i 0 -k RTR
r -t 2.567071727 -s 6 -d -1 -p AODV -e 52 -c 2 -a 0 -i 0 -k RTR
r -t 2.567072137 -s 8 -d -1 -p AODV -e 52 -c 2 -a 0 -i 0 -k RTR
r -t 2.567072159 -s 7 -d -1 -p AODV -e 52 -c 2 -a 0 -i 0 -k RTR
+ -t 2.567477159 -s 7 -d -1 -p AODV -e 110 -c 2 -a 0 -i 0 -k MAC 
- -t 2.567477159 -s 7 -d -1 -p AODV -e 110 -c 2 -a 0 -i 0 -k MAC
h -t 2.567477159 -s 7 -d -1 -p AODV -e 110 -c 2 -a 0 -i 0 -k MAC
r -t 2.568357769 -s 2 -d -1 -p AODV -e 52 -c 2 -a 0 -i 0 -k MAC
r -t 2.568357795 -s 4 -d -1 -p AODV -e 52 -c 2 -a 0 -i 0 -k MAC
r -t 2.568357889 -s 3 -d -1 -p AODV -e 52 -c 2 -a 0 -i 0 -k MAC
r -t 2.568357937 -s 6 -d -1 -p AODV -e 52 -c 2 -a 0 -i 0 -k MAC
r -t 2.568358033 -s 1 -d -1 -p AODV -e 52 -c 2 -a 0 -i 0 -k MAC
r -t 2.568358096 -s 5 -d -1 -p AODV -e 52 -c 2 -a 0 -i 0 -k MAC
r -t 2.568358232 -s 0 -d -1 -p AODV -e 52 -c 2 -a 0 -i 0 -k MAC
r -t 2.568358281 -s 8 -d -1 -p AODV -e 52 -c 2 -a 0 -i 0 -k MAC
r -t 2.568382769 -s 2 -d -1 -p AODV -e 52 -c 2 -a 0 -i 0 -k RTR
r -t 2.568382795 -s 4 -d -1 -p AODV -e 52 -c 2 -a 0 -i 0 -k RTR
r -t 2.568382889 -s 3 -d -1 -p AODV -e 52 -c 2 -a 0 -i 0 -k RTR
r -t 2.568382937 -s 6 -d -1 -p AODV -e 52 -c 2 -a 0 -i 0 -k RTR
r -t 2.568383033 -s 1 -d -1 -p AODV -e 52 -c 2 -a 0 -i 0 -k RTR
r -t 2.568383096 -s 5 -d -1 -p AODV -e 52 -c 2 -a 0 -i 0 -k RTR
r -t 2.568383232 -s 0 -d -1 -p AODV -e 52 -c 2 -a 0 -i 0 -k RTR
r -t 2.568383281 -s 8 -d -1 -p AODV -e 52 -c 2 -a 0 -i 0 -k RTR
+ -t 2.568444719 -s 0 -d -1 -p AODV -e 52 -c 2 -a 0 -i 0 -k RTR 
- -t 2.568444719 -s 0 -d -1 -p AODV -e 52 -c 2 -a 0 -i 0 -k RTR
h -t 2.568444719 -s 0 -d -1 -p AODV -e 52 -c 2 -a 0 -i 0 -k RTR
+ -t 2.569059719 -s 0 -d -1 -p AODV -e 110 -c 2 -a 0 -i 0 -k MAC 
- -t 2.569059719 -s 0 -d -1 -p AODV -e 110 -c 2 -a 0 -i 0 -k MAC
h -t 2.569059719 -s 0 -d -1 -p AODV -e 110 -c 2 -a 0 -i 0 -k MAC
r -t 2.569940184 -s 2 -d -1 -p AODV -e 52 -c 2 -a 0 -i 0 -k MAC
r -t 2.569940199 -s 4 -d -1 -p AODV -e 52 -c 2 -a 0 -i 0 -k MAC
r -t 2.569940212 -s 1 -d -1 -p AODV -e 52 -c 2 -a 0 -i 0 -k MAC
r -t 2.569940413 -s 5 -d -1 -p AODV -e 52 -c 2 -a 0 -i 0 -k MAC
r -t 2.569940522 -s 3 -d -1 -p AODV -e 52 -c 2 -a 0 -i 0 -k MAC
r -t 2.569940643 -s 6 -d -1 -p AODV -e 52 -c 2 -a 0 -i 0 -k MAC
r -t 2.569940792 -s 7 -d -1 -p AODV -e 52 -c 2 -a 0 -i 0 -k MAC
r -t 2.569940805 -s 9 -d -1 -p AODV -e 52 -c 2 -a 0 -i 0 -k MAC
r -t 2.569965184 -s 2 -d -1 -p AODV -e 52 -c 2 -a 0 -i 0 -k RTR
r -t 2.569965199 -s 4 -d -1 -p AODV -e 52 -c 2 -a 0 -i 0 -k RTR
r -t 2.569965212 -s 1 -d -1 -p AODV -e 52 -c 2 -a 0 -i 0 -k RTR
r -t 2.569965413 -s 5 -d -1 -p AODV -e 52 -c 2 -a 0 -i 0 -k RTR
r -t 2.569965522 -s 3 -d -1 -p AODV -e 52 -c 2 -a 0 -i 0 -k RTR
r -t 2.569965643 -s 6 -d -1 -p AODV -e 52 -c 2 -a 0 -i 0 -k RTR
r -t 2.569965792 -s 7 -d -1 -p AODV -e 52 -c 2 -a 0 -i 0 -k RTR
r -t 2.569965805 -s 9 -d -1 -p AODV -e 52 -c 2 -a 0 -i 0 -k RTR
+ -t 2.569965805 -s 9 -d 4 -p AODV -e 44 -c 2 -a 0 -i 0 -k RTR 
- -t 2.569965805 -s 9 -d 4 -p AODV -e 44 -c 2 -a 0 -i 0 -k RTR
h -t 2.569965805 -s 9 -d 4 -p AODV -e 44 -c 2 -a 0 -i 0 -k RTR
d -t 2.569965805 -s 9 -d 4 -p AODV -e 44 -c 2 -a 0 -i 0 -k IFQ
d -t 2.569965805 -s 9 -d 4 -p AODV -e 44 -c 2 -a 0 -i 0 -k IFQ
+ -t 2.656906794 -s 8 -d -1 -p cbr -e 512 -c 2 -a 0 -i 1 -k AGT 
- -t 2.656906794 -s 8 -d -1 -p cbr -e 512 -c 2 -a 0 -i 1 -k AGT
h -t 2.656906794 -s 8 -d -1 -p cbr -e 512 -c 2 -a 0 -i 1 -k AGT
+ -t 2.927128105 -s 8 -d -1 -p cbr -e 512 -c 2 -a 0 -i 2 -k AGT 
- -t 2.927128105 -s 8 -d -1 -p cbr -e 512 -c 2 -a 0 -i 2 -k AGT
h -t 2.927128105 -s 8 -d -1 -p cbr -e 512 -c 2 -a 0 -i 2 -k AGT
+ -t 3.162597893 -s 8 -d -1 -p cbr -e 512 -c 2 -a 0 -i 3 -k AGT 
- -t 3.162597893 -s 8 -d -1 -p cbr -e 512 -c 2 -a 0 -i 3 -k AGT
h -t 3.162597893 -s 8 -d -1 -p cbr -e 512 -c 2 -a 0 -i 3 -k AGT
+ -t 3.415044272 -s 8 -d -1 -p cbr -e 512 -c 2 -a 0 -i 4 -k AGT 
- -t 3.415044272 -s 8 -d -1 -p cbr -e 512 -c 2 -a 0 -i 4 -k AGT
h -t 3.415044272 -s 8 -d -1 -p cbr -e 512 -c 2 -a 0 -i 4 -k AGT
+ -t 3.696033366 -s 8 -d -1 -p cbr -e 512 -c 2 -a 0 -i 5 -k AGT 
- -t 3.696033366 -s 8 -d -1 -p cbr -e 512 -c 2 -a 0 -i 5 -k AGT
h -t 3.696033366 -s 8 -d -1 -p cbr -e 512 -c 2 -a 0 -i 5 -k AGT
n -t 3.838473 -s 2 -x 284.515381 -y 287.948908 -U 0.000000 -V 0.000000 -T 0.000000
+ -t 3.877137181 -s 8 -d -1 -p cbr -e 512 -c 2 -a 0 -i 6 -k AGT 
- -t 3.877137181 -s 8 -d -1 -p cbr -e 512 -c 2 -a 0 -i 6 -k AGT
h -t 3.877137181 -s 8 -d -1 -p cbr -e 512 -c 2 -a 0 -i 6 -k AGT
+ -t 3.998976875 -s 8 -d -1 -p cbr -e 512 -c 2 -a 0 -i 7 -k AGT 
- -t 3.998976875 -s 8 -d -1 -p cbr -e 512 -c 2 -a 0 -i 7 -k AGT
h -t 3.998976875 -s 8 -d -1 -p cbr -e 512 -c 2 -a 0 -i 7 -k AGT
+ -t 4.179818381 -s 8 -d -1 -p cbr -e 512 -c 2 -a 0 -i 8 -k AGT 
- -t 4.179818381 -s 8 -d -1 -p cbr -e 512 -c 2 -a 0 -i 8 -k AGT
h -t 4.179818381 -s 8 -d -1 -p cbr -e 512 -c 2 -a 0 -i 8 -k AGT
+ -t 4.317291429 -s 8 -d -1 -p cbr -e 512 -c 2 -a 0 -i 9 -k AGT 
- -t 4.317291429 -s 8 -d -1 -p cbr -e 512 -c 2 -a 0 -i 9 -k AGT
h -t 4.317291429 -s 8 -d -1 -p cbr -e 512 -c 2 -a 0 -i 9 -k AGT
+ -t 4.500000000 -s 8 -d -1 -p AODV -e 52 -c 2 -a 0 -i 0 -k RTR 
- -t 4.500000000 -s 8 -d -1 -p AODV -e 52 -c 2 -a 0 -i 0 -k RTR
h -t 4.500000000 -s 8 -d -1 -p AODV -e 52 -c 2 -a 0 -i 0 -k RTR
+ -t 4.500295000 -s 8 -d -1 -p AODV -e 110 -c 2 -a 0 -i 0 -k MAC 
- -t 4.500295000 -s 8 -d -1 -p AODV -e 110 -c 2 -a 0 -i 0 -k MAC
h -t 4.500295000 -s 8 -d -1 -p AODV -e 110 -c 2 -a 0 -i 0 -k MAC
r -t 4.501175566 -s 6 -d -1 -p AODV -e 52 -c 2 -a 0 -i 0 -k MAC
r -t 4.501175741 -s 5 -d -1 -p AODV -e 52 -c 2 -a 0 -i 0 -k MAC
r -t 4.501175842 -s 1 -d -1 -p AODV -e 52 -c 2 -a 0 -i 0 -k MAC
r -t 4.501176036 -s 7 -d -1 -p AODV -e 52 -c 2 -a 0 -i 0 -k MAC
r -t 4.501176199 -s 2 -d -1 -p AODV -e 52 -c 2 -a 0 -i 0 -k MAC
r -t 4.501176207 -s 0 -d -1 -p AODV -e 52 -c 2 -a 0 -i 0 -k MAC
r -t 4.501200566 -s 6 -d -1 -p AODV -e 52 -c 2 -a 0 -i 0 -k RTR
r -t 4.501200741 -s 5 -d -1 -p AODV -e 52 -c 2 -a 0 -i 0 -k RTR
r -t 4.501200842 -s 1 -d -1 -p AODV -e 52 -c 2 -a 0 -i 0 -k RTR
r -t 4.501201036 -s 7 -d -1 -p AODV -e 52 -c 2 -a 0 -i 0 -k RTR
r -t 4.501201199 -s 2 -d -1 -p AODV -e 52 -c 2 -a 0 -i 0 -k RTR
r -t 4.501201207 -s 0 -d -1 -p AODV -e 52 -c 2 -a 0 -i 0 -k RTR
+ -t 4.501308926 -s 1 -d -1 -p AODV -e 52 -c 2 -a 0 -i 0 -k RTR 
- -t 4.501308926 -s 1 -d -1 -p AODV -e 52 -c 2 -a 0 -i 0 -k RTR
h -t 4.501308926 -s 1 -d -1 -p AODV -e 52 -c 2 -a 0 -i 0 -k RTR
+ -t 4.501563926 -s 1 -d -1 -p AODV -e 110 -c 2 -a 0 -i 0 -k MAC 
- -t 4.501563926 -s 1 -d -1 -p AODV -e 110 -c 2 -a 0 -i 0 -k MAC
h -t 4.501563926 -s 1 -d -1 -p AODV -e 110 -c 2 -a 0 -i 0 -k MAC
+ -t 4.501784767 -s 5 -d -1 -p AODV -e 52 -c 2 -a 0 -i 0 -k RTR 
- -t 4.501784767 -s 5 -d -1 -p AODV -e 52 -c 2 -a 0 -i 0 -k RTR
h -t 4.501784767 -s 5 -d -1 -p AODV -e 52 -c 2 -a 0 -i 0 -k RTR
+ -t 4.502320880 -s 6 -d -1 -p AODV -e 52 -c 2 -a 0 -i 0 -k RTR 
- -t 4.502320880 -s 6 -d -1 -p AODV -e 52 -c 2 -a 0 -i 0 -k RTR
h -t 4.502320880 -s 6 -d -1 -p AODV -e 52 -c 2 -a 0 -i 0 -k RTR
+ -t 4.502432242 -s 0 -d -1 -p AODV -e 52 -c 2 -a 0 -i 0 -k RTR 
- -t 4.502432242 -s 0 -d -1 -p AODV -e 52 -c 2 -a 0 -i 0 -k RTR
h -t 4.502432242 -s 0 -d -1 -p AODV -e 52 -c 2 -a 0 -i 0 -k RTR
r -t 4.502444032 -s 5 -d -1 -p AODV -e 52 -c 2 -a 0 -i 0 -k MAC
r -t 4.502444297 -s 0 -d -1 -p AODV -e 52 -c 2 -a 0 -i 0 -k MAC
r -t 4.502444320 -s 6 -d -1 -p AODV -e 52 -c 2 -a 0 -i 0 -k MAC
r -t 4.502444500 -s 2 -d -1 -p AODV -e 52 -c 2 -a 0 -i 0 -k MAC
r -t 4.502444757 -s 4 -d -1 -p AODV -e 52 -c 2 -a 0 -i 0 -k MAC
r -t 4.502444765 -s 7 -d -1 -p AODV -e 52 -c 2 -a 0 -i 0 -k MAC
r -t 4.502444768 -s 8 -d -1 -p AODV -e 52 -c 2 -a 0 -i 0 -k MAC
r -t 4.502444861 -s 3 -d -1 -p AODV -e 52 -c 2 -a 0 -i 0 -k MAC
r -t 4.502469032 -s 5 -d -1 -p AODV -e 52 -c 2 -a 0 -i 0 -k RTR
r -t 4.502469297 -s 0 -d -1 -p AODV -e 52 -c 2 -a 0 -i 0 -k RTR
r -t 4.502469320 -s 6 -d -1 -p AODV -e 52 -c 2 -a 0 -i 0 -k RTR
r -t 4.502469500 -s 2 -d -1 -p AODV -e 52 -c 2 -a 0 -i 0 -k RTR
r -t 4.502469757 -s 4 -d -1 -p AODV -e 52 -c 2 -a 0 -i 0 -k RTR
r -t 4.502469765 -s 7 -d -1 -p AODV -e 52 -c 2 -a 0 -i 0 -k RTR
r -t 4.502469768 -s 8 -d -1 -p AODV -e 52 -c 2 -a 0 -i 0 -k RTR
r -t 4.502469861 -s 3 -d -1 -p AODV -e 52 -c 2 -a 0 -i 0 -k RTR
+ -t 4.502727242 -s 0 -d -1 -p AODV -e 110 -c 2 -a 0 -i 0 -k MAC 
- -t 4.502727242 -s 0 -d -1 -p AODV -e 110 -c 2 -a 0 -i 0 -k MAC
h -t 4.502727242 -s 0 -d -1 -p AODV -e 110 -c 2 -a 0 -i 0 -k MAC
r -t 4.503607614 -s 1 -d -1 -p AODV -e 52 -c 2 -a 0 -i 0 -k MAC
r -t 4.503607699 -s 2 -d -1 -p AODV -e 52 -c 2 -a 0 -i 0 -k MAC
r -t 4.503607721 -s 5 -d -1 -p AODV -e 52 -c 2 -a 0 -i 0 -k MAC
r -t 4.503607808 -s 4 -d -1 -p AODV -e 52 -c 2 -a 0 -i 0 -k MAC
r -t 4.503607942 -s 6 -d -1 -p AODV -e 52 -c 2 -a 0 -i 0 -k MAC
r -t 4.503607952 -s 3 -d -1 -p AODV -e 52 -c 2 -a 0 -i 0 -k MAC
r -t 4.503608165 -s 7 -d -1 -p AODV -e 52 -c 2 -a 0 -i 0 -k MAC
r -t 4.503608449 -s 8 -d -1 -p AODV -e 52 -c 2 -a 0 -i 0 -k MAC
r -t 4.503608460 -s 9 -d -1 -p AODV -e 52 -c 2 -a 0 -i 0 -k MAC
r -t 4.503632614 -s 1 -d -1 -p AODV -e 52 -c 2 -a 0 -i 0 -k RTR
r -t 4.503632699 -s 2 -d -1 -p AODV -e 52 -c 2 -a 0 -i 0 -k RTR
r -t 4.503632721 -s 5 -d -1 -p AODV -e 52 -c 2 -a 0 -i 0 -k RTR
r -t 4.503632808 -s 4 -d -1 -p AODV -e 52 -c 2 -a 0 -i 0 -k RTR
r -t 4.503632942 -s 6 -d -1 -p AODV -e 52 -c 2 -a 0 -i 0 -k RTR
r -t 4.503632952 -s 3 -d -1 -p AODV -e 52 -c 2 -a 0 -i 0 -k RTR
r -t 4.503633165 -s 7 -d -1 -p AODV -e 52 -c 2 -a 0 -i 0 -k RTR
r -t 4.503633449 -s 8 -d -1 -p AODV -e 52 -c 2 -a 0 -i 0 -k RTR
r -t 4.503633460 -s 9 -d -1 -p AODV -e 52 -c 2 -a 0 -i 0 -k RTR
+ -t 4.503633460 -s 9 -d 0 -p AODV -e 44 -c 2 -a 0 -i 0 -k RTR 
- -t 4.503633460 -s 9 -d 0 -p AODV -e 44 -c 2 -a 0 -i 0 -k RTR
h -t 4.503633460 -s 9 -d 0 -p AODV -e 44 -c 2 -a 0 -i 0 -k RTR
+ -t 4.503717721 -s 5 -d -1 -p AODV -e 110 -c 2 -a 0 -i 0 -k MAC 
- -t 4.503717721 -s 5 -d -1 -p AODV -e 110 -c 2 -a 0 -i 0 -k MAC
h -t 4.503717721 -s 5 -d -1 -p AODV -e 110 -c 2 -a 0 -i 0 -k MAC
+ -t 4.503768460 -s 9 -d -1 -p ARP -e 86 -c 2 -a 0 -i 0 -k MAC 
- -t 4.503768460 -s 9 -d -1 -p ARP -e 86 -c 2 -a 0 -i 0 -k MAC
h -t 4.503768460 -s 9 -d -1 -p ARP -e 86 -c 2 -a 0 -i 0 -k MAC
d -t 4.503769310 -s 4 -d -1 -p ARP -e 86 -c 2 -a 0 -i 0 -k MAC
d -t 4.503769343 -s 3 -d -1 -p ARP -e 86 -c 2 -a 0 -i 0 -k MAC
+ -t 4.504557826 -s 2 -d -1 -p AODV -e 52 -c 2 -a 0 -i 0 -k RTR 
- -t 4.504557826 -s 2 -d -1 -p AODV -e 52 -c 2 -a 0 -i 0 -k RTR
h -t 4.504557826 -s 2 -d -1 -p AODV -e 52 -c 2 -a 0 -i 0 -k RTR
r -t 4.504597827 -s 1 -d -1 -p AODV -e 52 -c 2 -a 0 -i 0 -k MAC
r -t 4.504598062 -s 6 -d -1 -p AODV -e 52 -c 2 -a 0 -i 0 -k MAC
r -t 4.504598199 -s 0 -d -1 -p AODV -e 52 -c 2 -a 0 -i 0 -k MAC
r -t 4.504598372 -s 2 -d -1 -p AODV -e 52 -c 2 -a 0 -i 0 -k MAC
r -t 4.504598462 -s 8 -d -1 -p AODV -e 52 -c 2 -a 0 -i 0 -k MAC
r -t 4.504598574 -s 7 -d -1 -p AODV -e 52 -c 2 -a 0 -i 0 -k MAC
d -t 4.504598646 -s 4 -d -1 -p AODV -e 110 -c 2 -a 0 -i 0 -k MAC
d -t 4.504598742 -s 3 -d -1 -p AODV -e 110 -c 2 -a 0 -i 0 -k MAC
r -t 4.504622827 -s 1 -d -1 -p AODV -e 52 -c 2 -a 0 -i 0 -k RTR
r -t 4.504623062 -s 6 -d -1 -p AODV -e 52 -c 2 -a 0 -i 0 -k RTR
r -t 4.504623199 -s 0 -d -1 -p AODV -e 52 -c 2 -a 0 -i 0 -k RTR
r -t 4.504623372 -s 2 -d -1 -p AODV -e 52 -c 2 -a 0 -i 0 -k RTR
r -t 4.504623462 -s 8 -d -1 -p AODV -e 52 -c 2 -a 0 -i 0 -k RTR
r -t 4.504623574 -s 7 -d -1 -p AODV -e 52 -c 2 -a 0 -i 0 -k RTR
+ -t 4.504848062 -s 6 -d -1 -p AODV -e 110 -c 2 -a 0 -i 0 -k MAC 
- -t 4.504848062 -s 6 -d -1 -p AODV -e 110 -c 2 -a 0 -i 0 -k MAC
h -t 4.504848062 -s 6 -d -1 -p AODV -e 110 -c 2 -a 0 -i 0 -k MAC
+ -t 4.505087998 -s 4 -d -1 -p AODV -e 52 -c 2 -a 0 -i 0 -k RTR 
- -t 4.505087998 -s 4 -d -1 -p AODV -e 52 -c 2 -a 0 -i 0 -k RTR
h -t 4.505087998 -s 4 -d -1 -p AODV -e 52 -c 2 -a 0 -i 0 -k RTR
r -t 4.505728404 -s 5 -d -1 -p AODV -e 52 -c 2 -a 0 -i 0 -k MAC
r -t 4.505728457 -s 1 -d -1 -p AODV -e 52 -c 2 -a 0 -i 0 -k MAC
r -t 4.505728629 -s 8 -d -1 -p AODV -e 52 -c 2 -a 0 -i 0 -k MAC
r -t 4.505728662 -s 7 -d -1 -p AODV -e 52 -c 2 -a 0 -i 0 -k MAC
r -t 4.505728695 -s 2 -d -1 -p AODV -e 52 -c 2 -a 0 -i 0 -k MAC
r -t 4.505728762 -s 0 -d -1 -p AODV -e 52 -c 2 -a 0 -i 0 -k MAC
r -t 4.505729026 -s 4 -d -1 -p AODV -e 52 -c 2 -a 0 -i 0 -k MAC
r -t 4.505729070 -s 3 -d -1 -p AODV -e 52 -c 2 -a 0 -i 0 -k MAC
r -t 4.505753404 -s 5 -d -1 -p AODV -e 52 -c 2 -a 0 -i 0 -k RTR
r -t 4.505753457 -s 1 -d -1 -p AODV -e 52 -c 2 -a 0 -i 0 -k RTR
r -t 4.505753629 -s 8 -d -1 -p AODV -e 52 -c 2 -a 0 -i 0 -k RTR
r -t 4.505753662 -s 7 -d -1 -p AODV -e 52 -c 2 -a 0 -i 0 -k RTR
r -t 4.505753695 -s 2 -d -1 -p AODV -e 52 -c 2 -a 0 -i 0 -k RTR
r -t 4.505753762 -s 0 -d -1 -p AODV -e 52 -c 2 -a 0 -i 0 -k RTR
r -t 4.505754026 -s 4 -d -1 -p AODV -e 52 -c 2 -a 0 -i 0 -k RTR
r -t 4.505754070 -s 3 -d -1 -p AODV -e 52 -c 2 -a 0 -i 0 -k RTR
+ -t 4.505778695 -s 2 -d -1 -p AODV -e 110 -c 2 -a 0 -i 0 -k MAC 
- -t 4.505778695 -s 2 -d -1 -p AODV -e 110 -c 2 -a 0 -i 0 -k MAC
h -t 4.505778695 -s 2 -d -1 -p AODV -e 110 -c 2 -a 0 -i 0 -k MAC
r -t 4.506659031 -s 4 -d -1 -p AODV -e 52 -c 2 -a 0 -i 0 -k MAC
r -t 4.506659077 -s 3 -d -1 -p AODV -e 52 -c 2 -a 0 -i 0 -k MAC
r -t 4.506659152 -s 0 -d -1 -p AODV -e 52 -c 2 -a 0 -i 0 -k MAC
r -t 4.506659222 -s 7 -d -1 -p AODV -e 52 -c 2 -a 0 -i 0 -k MAC
r -t 4.506659270 -s 1 -d -1 -p AODV -e 52 -c 2 -a 0 -i 0 -k MAC
r -t 4.506659328 -s 6 -d -1 -p AODV -e 52 -c 2 -a 0 -i 0 -k MAC
r -t 4.506659346 -s 5 -d -1 -p AODV -e 52 -c 2 -a 0 -i 0 -k MAC
r -t 4.506659878 -s 9 -d -1 -p AODV -e 52 -c 2 -a 0 -i 0 -k MAC
r -t 4.506659894 -s 8 -d -1 -p AODV -e 52 -c 2 -a 0 -i 0 -k MAC
r -t 4.506684031 -s 4 -d -1 -p AODV -e 52 -c 2 -a 0 -i 0 -k RTR
r -t 4.506684077 -s 3 -d -1 -p AODV -e 52 -c 2 -a 0 -i 0 -k RTR
r -t 4.506684152 -s 0 -d -1 -p AODV -e 52 -c 2 -a 0 -i 0 -k RTR
r -t 4.506684222 -s 7 -d -1 -p AODV -e 52 -c 2 -a 0 -i 0 -k RTR
r -t 4.506684270 -s 1 -d -1 -p AODV -e 52 -c 2 -a 0 -i 0 -k RTR
r -t 4.506684328 -s 6 -d -1 -p AODV -e 52 -c 2 -a 0 -i 0 -k RTR
r -t 4.506684346 -s 5 -d -1 -p AODV -e 52 -c 2 -a 0 -i 0 -k RTR
r -t 4.506684878 -s 9 -d -1 -p AODV -e 52 -c 2 -a 0 -i 0 -k RTR
+ -t 4.506684878 -s 9 -d 0 -p AODV -e 44 -c 2 -a 0 -i 0 -k RTR 
- -t 4.506684878 -s 9 -d 0 -p AODV -e 44 -c 2 -a 0 -i 0 -k RTR
h -t 4.506684878 -s 9 -d 0 -p AODV -e 44 -c 2 -a 0 -i 0 -k RTR
d -t 4.506684878 -s 9 -d 0 -p AODV -e 44 -c 2 -a 0 -i 0 -k IFQ
r -t 4.506684894 -s 8 -d -1 -p AODV -e 52 -c 2 -a 0 -i 0 -k RTR
+ -t 4.507009031 -s 4 -d -1 -p AODV -e 110 -c 2 -a 0 -i 0 -k MAC 
- -t 4.507009031 -s 4 -d -1 -p AODV -e 110 -c 2 -a 0 -i 0 -k MAC
h -t 4.507009031 -s 4 -d -1 -p AODV -e 110 -c 2 -a 0 -i 0 -k MAC
+ -t 4.507151309 -s 7 -d -1 -p AODV -e 52 -c 2 -a 0 -i 0 -k RTR 
- -t 4.507151309 -s 7 -d -1 -p AODV -e 52 -c 2 -a 0 -i 0 -k RTR
h -t 4.507151309 -s 7 -d -1 -p AODV -e 52 -c 2 -a 0 -i 0 -k RTR
r -t 4.507889197 -s 3 -d -1 -p AODV -e 52 -c 2 -a 0 -i 0 -k MAC
r -t 4.507889368 -s 2 -d -1 -p AODV -e 52 -c 2 -a 0 -i 0 -k MAC
r -t 4.507889598 -s 0 -d -1 -p AODV -e 52 -c 2 -a 0 -i 0 -k MAC
r -t 4.507889820 -s 7 -d -1 -p AODV -e 52 -c 2 -a 0 -i 0 -k MAC
r -t 4.507889863 -s 1 -d -1 -p AODV -e 52 -c 2 -a 0 -i 0 -k MAC
r -t 4.507889881 -s 9 -d -1 -p AODV -e 52 -c 2 -a 0 -i 0 -k MAC
r -t 4.507889957 -s 5 -d -1 -p AODV -e 52 -c 2 -a 0 -i 0 -k MAC
r -t 4.507889996 -s 6 -d -1 -p AODV -e 52 -c 2 -a 0 -i 0 -k MAC
r -t 4.507914197 -s 3 -d -1 -p AODV -e 52 -c 2 -a 0 -i 0 -k RTR
r -t 4.507914368 -s 2 -d -1 -p AODV -e 52 -c 2 -a 0 -i 0 -k RTR
r -t 4.507914598 -s 0 -d -1 -p AODV -e 52 -c 2 -a 0 -i 0 -k RTR
r -t 4.507914820 -s 7 -d -1 -p AODV -e 52 -c 2 -a 0 -i 0 -k RTR
r -t 4.507914863 -s 1 -d -1 -p AODV -e 52 -c 2 -a 0 -i 0 -k RTR
r -t 4.507914881 -s 9 -d -1 -p AODV -e 52 -c 2 -a 0 -i 0 -k RTR
+ -t 4.507914881 -s 9 -d 0 -p AODV -e 44 -c 2 -a 0 -i 0 -k RTR 
- -t 4.507914881 -s 9 -d 0 -p AODV -e 44 -c 2 -a 0 -i 0 -k RTR
h -t 4.507914881 -s 9 -d 0 -p AODV -e 44 -c 2 -a 0 -i 0 -k RTR
d -t 4.507914881 -s 9 -d 0 -p AODV -e 44 -c 2 -a 0 -i 0 -k IFQ
r -t 4.507914957 -s 5 -d -1 -p AODV -e 52 -c 2 -a 0 -i 0 -k RTR
r -t 4.507914996 -s 6 -d -1 -p AODV -e 52 -c 2 -a 0 -i 0 -k RTR
+ -t 4.508018258 -s 3 -d -1 -p AODV -e 52 -c 2 -a 0 -i 0 -k RTR 
- -t 4.508018258 -s 3 -d -1 -p AODV -e 52 -c 2 -a 0 -i 0 -k RTR
h -t 4.508018258 -s 3 -d -1 -p AODV -e 52 -c 2 -a 0 -i 0 -k RTR
+ -t 4.508159881 -s 9 -d -1 -p ARP -e 86 -c 2 -a 0 -i 0 -k MAC 
- -t 4.508159881 -s 9 -d -1 -p ARP -e 86 -c 2 -a 0 -i 0 -k MAC
h -t 4.508159881 -s 9 -d -1 -p ARP -e 86 -c 2 -a 0 -i 0 -k MAC
+ -t 4.508179820 -s 7 -d -1 -p AODV -e 110 -c 2 -a 0 -i 0 -k MAC 
- -t 4.508179820 -s 7 -d -1 -p AODV -e 110 -c 2 -a 0 -i 0 -k MAC
h -t 4.508179820 -s 7 -d -1 -p AODV -e 110 -c 2 -a 0 -i 0 -k MAC
d -t 4.508180347 -s 2 -d -1 -p ARP -e 86 -c 2 -a 0 -i 0 -k MAC
d -t 4.508180546 -s 3 -d -1 -p ARP -e 86 -c 2 -a 0 -i 0 -k MAC
d -t 4.508180609 -s 4 -d -1 -p ARP -e 86 -c 2 -a 0 -i 0 -k MAC
d -t 4.508180742 -s 0 -d -1 -p ARP -e 86 -c 2 -a 0 -i 0 -k MAC
+ -t 4.508937881 -s 9 -d -1 -p ARP -e 86 -c 2 -a 0 -i 0 -k MAC 