M 0.0 nn 10 x 500 y 500 rp AODV
M 0.0 sc setdest10.tcl cp cbr10.tcl seed 1.0
M 0.0 prop Propagation/TwoRayGround ant Antenna/OmniAntenna
M 0.00000 0 (117.35, 252.36, 0.00), (394.16, 10.37), 21.63
M 0.00000 1 (296.96, 166.63, 0.00), (250.94, 57.76), 12.23
M 0.00000 2 (306.60, 200.09, 0.00), (284.52, 287.95), 23.60
M 0.00000 3 (290.47, 483.85, 0.00), (170.47, 258.32), 22.44
M 0.00000 4 (347.87, 243.52, 0.00), (119.01, 432.71), 39.47
M 0.00000 5 (356.58, 80.19, 0.00), (21.03, 154.07), 13.31
M 0.00000 6 (440.15, 69.42, 0.00), (325.53, 220.98), 17.41
M 0.00000 7 (481.33, 372.11, 0.00), (371.69, 187.08), 17.30
s 2.556838879 _8_ AGT  --- 0 cbr 512 [0 0 0 0] [energy 50.000000 ei 0.000 es 0.000 et 0.000 er 0.000] ------- [8:0 9:0 32 0] [0] 0 0
r 2.556838879 _8_ RTR  --- 0 cbr 512 [0 0 0 0] [energy 50.000000 ei 0.000 es 0.000 et 0.000 er 0.000] ------- [8:0 9:0 32 0] [0] 0 0
s 2.556838879 _8_ RTR  --- 0 AODV 52 [0 0 0 0] [energy 50.000000 ei 0.000 es 0.000 et 0.000 er 0.000] ------- [8:255 -1:255 30 0] [0x2 1 1 [9 0] [8 4]] (REQUEST)
s 2.556953879 _8_ MAC  --- 0 AODV 110 [0 ffffffff 8 800] [energy 50.000000 ei 0.000 es 0.000 et 0.000 er 0.000] ------- [8:255 -1:255 30 0] [0x2 1 1 [9 0] [8 4]] (REQUEST)
N -t 2.556954 -n 6 -e 48.720643
N -t 2.556955 -n 5 -e 48.720643
N -t 2.556955 -n 1 -e 48.720643
N -t 2.556955 -n 2 -e 48.720643
N -t 2.556955 -n 7 -e 48.720642
N -t 2.556955 -n 4 -e 48.720642
r 2.557834332 _6_ MAC  --- 0 AODV 52 [0 ffffffff 8 800] [energy 48.720643 ei 1.278 es 0.000 et 0.000 er 0.001] ------- [8:255 -1:255 30 0] [0x2 1 1 [9 0] [8 4]] (REQUEST)
r 2.557834536 _5_ MAC  --- 0 AODV 52 [0 ffffffff 8 800] [energy 48.720643 ei 1.278 es 0.000 et 0.000 er 0.001] ------- [8:255 -1:255 30 0] [0x2 1 1 [9 0] [8 4]] (REQUEST)
r 2.557834731 _1_ MAC  --- 0 AODV 52 [0 ffffffff 8 800] [energy 48.720643 ei 1.278 es 0.000 et 0.000 er 0.001] ------- [8:255 -1:255 30 0] [0x2 1 1 [9 0] [8 4]] (REQUEST)
r 2.557834985 _2_ MAC  --- 0 AODV 52 [0 ffffffff 8 800] [energy 48.720643 ei 1.278 es 0.000 et 0.000 er 0.001] ------- [8:255 -1:255 30 0] [0x2 1 1 [9 0] [8 4]] (REQUEST)
r 2.557835001 _7_ MAC  --- 0 AODV 52 [0 ffffffff 8 800] [energy 48.720642 ei 1.278 es 0.000 et 0.000 er 0.001] ------- [8:255 -1:255 30 0] [0x2 1 1 [9 0] [8 4]] (REQUEST)
r 2.557835159 _4_ MAC  --- 0 AODV 52 [0 ffffffff 8 800] [energy 48.720642 ei 1.278 es 0.000 et 0.000 er 0.001] ------- [8:255 -1:255 30 0] [0x2 1 1 [9 0] [8 4]] (REQUEST)
r 2.557859332 _6_ RTR  --- 0 AODV 52 [0 ffffffff 8 800] [energy 48.720643 ei 1.278 es 0.000 et 0.000 er 0.001] ------- [8:255 -1:255 30 0] [0x2 1 1 [9 0] [8 4]] (REQUEST)
r 2.557859536 _5_ RTR  --- 0 AODV 52 [0 ffffffff 8 800] [energy 48.720643 ei 1.278 es 0.000 et 0.000 er 0.001] ------- [8:255 -1:255 30 0] [0x2 1 1 [9 0] [8 4]] (REQUEST)
r 2.557859731 _1_ RTR  --- 0 AODV 52 [0 ffffffff 8 800] [energy 48.720643 ei 1.278 es 0.000 et 0.000 er 0.001] ------- [8:255 -1:255 30 0] [0x2 1 1 [9 0] [8 4]] (REQUEST)
r 2.557859985 _2_ RTR  --- 0 AODV 52 [0 ffffffff 8 800] [energy 48.720643 ei 1.278 es 0.000 et 0.000 er 0.001] ------- [8:255 -1:255 30 0] [0x2 1 1 [9 0] [8 4]] (REQUEST)
r 2.557860001 _7_ RTR  --- 0 AODV 52 [0 ffffffff 8 800] [energy 48.720642 ei 1.278 es 0.000 et 0.000 er 0.001] ------- [8:255 -1:255 30 0] [0x2 1 1 [9 0] [8 4]] (REQUEST)
r 2.557860159 _4_ RTR  --- 0 AODV 52 [0 ffffffff 8 800] [energy 48.720642 ei 1.278 es 0.000 et 0.000 er 0.001] ------- [8:255 -1:255 30 0] [0x2 1 1 [9 0] [8 4]] (REQUEST)
s 2.558740559 _6_ RTR  --- 0 AODV 52 [0 ffffffff 8 800] [energy 48.720643 ei 1.278 es 0.000 et 0.000 er 0.001] ------- [6:255 -1:255 29 0] [0x2 2 1 [9 0] [8 4]] (REQUEST)
s 2.559175559 _6_ MAC  --- 0 AODV 110 [0 ffffffff 6 800] [energy 48.720643 ei 1.278 es 0.000 et 0.000 er 0.001] ------- [6:255 -1:255 29 0] [0x2 2 1 [9 0] [8 4]] (REQUEST)
N -t 2.559176 -n 5 -e 48.719092
N -t 2.559176 -n 1 -e 48.719092
N -t 2.559176 -n 8 -e 48.717068
N -t 2.559176 -n 2 -e 48.719092
N -t 2.559176 -n 7 -e 48.719092
N -t 2.559176 -n 4 -e 48.719092
N -t 2.559176 -n 0 -e 48.719532
N -t 2.559177 -n 3 -e 48.719532
r 2.560055865 _5_ MAC  --- 0 AODV 52 [0 ffffffff 6 800] [energy 48.719092 ei 1.279 es 0.000 et 0.000 er 0.002] ------- [6:255 -1:255 29 0] [0x2 2 1 [9 0] [8 4]] (REQUEST)
r 2.560056001 _1_ MAC  --- 0 AODV 52 [0 ffffffff 6 800] [energy 48.719092 ei 1.279 es 0.000 et 0.000 er 0.002] ------- [6:255 -1:255 29 0] [0x2 2 1 [9 0] [8 4]] (REQUEST)
r 2.560056013 _8_ MAC  --- 0 AODV 52 [0 ffffffff 6 800] [energy 48.717068 ei 1.279 es 0.000 et 0.003 er 0.001] ------- [6:255 -1:255 29 0] [0x2 2 1 [9 0] [8 4]] (REQUEST)
r 2.560056212 _2_ MAC  --- 0 AODV 52 [0 ffffffff 6 800] [energy 48.719092 ei 1.279 es 0.000 et 0.000 er 0.002] ------- [6:255 -1:255 29 0] [0x2 2 1 [9 0] [8 4]] (REQUEST)
r 2.560056338 _7_ MAC  --- 0 AODV 52 [0 ffffffff 6 800] [energy 48.719092 ei 1.279 es 0.000 et 0.000 er 0.002] ------- [6:255 -1:255 29 0] [0x2 2 1 [9 0] [8 4]] (REQUEST)
r 2.560056387 _4_ MAC  --- 0 AODV 52 [0 ffffffff 6 800] [energy 48.719092 ei 1.279 es 0.000 et 0.000 er 0.002] ------- [6:255 -1:255 29 0] [0x2 2 1 [9 0] [8 4]] (REQUEST)
r 2.560056484 _0_ MAC  --- 0 AODV 52 [0 ffffffff 6 800] [energy 48.719532 ei 1.280 es 0.000 et 0.000 er 0.001] ------- [6:255 -1:255 29 0] [0x2 2 1 [9 0] [8 4]] (REQUEST)
r 2.560056762 _3_ MAC  --- 0 AODV 52 [0 ffffffff 6 800] [energy 48.719532 ei 1.280 es 0.000 et 0.000 er 0.001] ------- [6:255 -1:255 29 0] [0x2 2 1 [9 0] [8 4]] (REQUEST)
r 2.560080865 _5_ RTR  --- 0 AODV 52 [0 ffffffff 6 800] [energy 48.719092 ei 1.279 es 0.000 et 0.000 er 0.002] ------- [6:255 -1:255 29 0] [0x2 2 1 [9 0] [8 4]] (REQUEST)
r 2.560081001 _1_ RTR  --- 0 AODV 52 [0 ffffffff 6 800] [energy 48.719092 ei 1.279 es 0.000 et 0.000 er 0.002] ------- [6:255 -1:255 29 0] [0x2 2 1 [9 0] [8 4]] (REQUEST)
r 2.560081013 _8_ RTR  --- 0 AODV 52 [0 ffffffff 6 800] [energy 48.717068 ei 1.279 es 0.000 et 0.003 er 0.001] ------- [6:255 -1:255 29 0] [0x2 2 1 [9 0] [8 4]] (REQUEST)
r 2.560081212 _2_ RTR  --- 0 AODV 52 [0 ffffffff 6 800] [energy 48.719092 ei 1.279 es 0.000 et 0.000 er 0.002] ------- [6:255 -1:255 29 0] [0x2 2 1 [9 0] [8 4]] (REQUEST)
r 2.560081338 _7_ RTR  --- 0 AODV 52 [0 ffffffff 6 800] [energy 48.719092 ei 1.279 es 0.000 et 0.000 er 0.002] ------- [6:255 -1:255 29 0] [0x2 2 1 [9 0] [8 4]] (REQUEST)
r 2.560081387 _4_ RTR  --- 0 AODV 52 [0 ffffffff 6 800] [energy 48.719092 ei 1.279 es 0.000 et 0.000 er 0.002] ------- [6:255 -1:255 29 0] [0x2 2 1 [9 0] [8 4]] (REQUEST)
r 2.560081484 _0_ RTR  --- 0 AODV 52 [0 ffffffff 6 800] [energy 48.719532 ei 1.280 es 0.000 et 0.000 er 0.001] ------- [6:255 -1:255 29 0] [0x2 2 1 [9 0] [8 4]] (REQUEST)
r 2.560081762 _3_ RTR  --- 0 AODV 52 [0 ffffffff 6 800] [energy 48.719532 ei 1.280 es 0.000 et 0.000 er 0.001] ------- [6:255 -1:255 29 0] [0x2 2 1 [9 0] [8 4]] (REQUEST)
s 2.560206177 _4_ RTR  --- 0 AODV 52 [0 ffffffff 8 800] [energy 48.719092 ei 1.279 es 0.000 et 0.000 er 0.002] ------- [4:255 -1:255 29 0] [0x2 2 1 [9 0] [8 4]] (REQUEST)
s 2.560821177 _4_ MAC  --- 0 AODV 110 [0 ffffffff 4 800] [energy 48.719092 ei 1.279 es 0.000 et 0.000 er 0.002] ------- [4:255 -1:255 29 0] [0x2 2 1 [9 0] [8 4]] (REQUEST)
N -t 2.560821 -n 2 -e 48.717829
N -t 2.560822 -n 3 -e 48.718269
N -t 2.560822 -n 0 -e 48.718269
N -t 2.560822 -n 1 -e 48.717829
N -t 2.560822 -n 7 -e 48.717829
N -t 2.560822 -n 5 -e 48.717829
N -t 2.560822 -n 6 -e 48.715805
N -t 2.560822 -n 9 -e 48.718709
N -t 2.560822 -n 8 -e 48.715805
s 2.560989603 _2_ RTR  --- 0 AODV 52 [0 ffffffff 8 800] [energy 48.717829 ei 1.280 es 0.000 et 0.000 er 0.003] ------- [2:255 -1:255 29 0] [0x2 2 1 [9 0] [8 4]] (REQUEST)
r 2.561701356 _2_ MAC  --- 0 AODV 52 [0 ffffffff 4 800] [energy 48.717829 ei 1.280 es 0.000 et 0.000 er 0.003] ------- [4:255 -1:255 29 0] [0x2 2 1 [9 0] [8 4]] (REQUEST)
r 2.561701595 _3_ MAC  --- 0 AODV 52 [0 ffffffff 4 800] [energy 48.718269 ei 1.280 es 0.000 et 0.000 er 0.002] ------- [4:255 -1:255 29 0] [0x2 2 1 [9 0] [8 4]] (REQUEST)
r 2.561701657 _0_ MAC  --- 0 AODV 52 [0 ffffffff 4 800] [energy 48.718269 ei 1.280 es 0.000 et 0.000 er 0.002] ------- [4:255 -1:255 29 0] [0x2 2 1 [9 0] [8 4]] (REQUEST)
r 2.561701746 _1_ MAC  --- 0 AODV 52 [0 ffffffff 4 800] [energy 48.717829 ei 1.280 es 0.000 et 0.000 er 0.003] ------- [4:255 -1:255 29 0] [0x2 2 1 [9 0] [8 4]] (REQUEST)
r 2.561701812 _7_ MAC  --- 0 AODV 52 [0 ffffffff 4 800] [energy 48.717829 ei 1.280 es 0.000 et 0.000 er 0.003] ------- [4:255 -1:255 29 0] [0x2 2 1 [9 0] [8 4]] (REQUEST)
r 2.561701933 _5_ MAC  --- 0 AODV 52 [0 ffffffff 4 800] [energy 48.717829 ei 1.280 es 0.000 et 0.000 er 0.003] ------- [4:255 -1:255 29 0] [0x2 2 1 [9 0] [8 4]] (REQUEST)
r 2.561702005 _6_ MAC  --- 0 AODV 52 [0 ffffffff 4 800] [energy 48.715805 ei 1.280 es 0.000 et 0.003 er 0.002] ------- [4:255 -1:255 29 0] [0x2 2 1 [9 0] [8 4]] (REQUEST)
r 2.561702281 _9_ MAC  --- 0 AODV 52 [0 ffffffff 4 800] [energy 48.718709 ei 1.280 es 0.000 et 0.000 er 0.001] ------- [4:255 -1:255 29 0] [0x2 2 1 [9 0] [8 4]] (REQUEST)
r 2.561702458 _8_ MAC  --- 0 AODV 52 [0 ffffffff 4 800] [energy 48.715805 ei 1.280 es 0.000 et 0.003 er 0.002] ------- [4:255 -1:255 29 0] [0x2 2 1 [9 0] [8 4]] (REQUEST)
s 2.561723216 _3_ RTR  --- 0 AODV 52 [0 ffffffff 6 800] [energy 48.718269 ei 1.280 es 0.000 et 0.000 er 0.002] ------- [3:255 -1:255 28 0] [0x2 3 1 [9 0] [8 4]] (REQUEST)
r 2.561726356 _2_ RTR  --- 0 AODV 52 [0 ffffffff 4 800] [energy 48.717829 ei 1.280 es 0.000 et 0.000 er 0.003] ------- [4:255 -1:255 29 0] [0x2 2 1 [9 0] [8 4]] (REQUEST)
r 2.561726595 _3_ RTR  --- 0 AODV 52 [0 ffffffff 4 800] [energy 48.718269 ei 1.280 es 0.000 et 0.000 er 0.002] ------- [4:255 -1:255 29 0] [0x2 2 1 [9 0] [8 4]] (REQUEST)
r 2.561726657 _0_ RTR  --- 0 AODV 52 [0 ffffffff 4 800] [energy 48.718269 ei 1.280 es 0.000 et 0.000 er 0.002] ------- [4:255 -1:255 29 0] [0x2 2 1 [9 0] [8 4]] (REQUEST)
r 2.561726746 _1_ RTR  --- 0 AODV 52 [0 ffffffff 4 800] [energy 48.717829 ei 1.280 es 0.000 et 0.000 er 0.003] ------- [4:255 -1:255 29 0] [0x2 2 1 [9 0] [8 4]] (REQUEST)
r 2.561726812 _7_ RTR  --- 0 AODV 52 [0 ffffffff 4 800] [energy 48.717829 ei 1.280 es 0.000 et 0.000 er 0.003] ------- [4:255 -1:255 29 0] [0x2 2 1 [9 0] [8 4]] (REQUEST)
r 2.561726933 _5_ RTR  --- 0 AODV 52 [0 ffffffff 4 800] [energy 48.717829 ei 1.280 es 0.000 et 0.000 er 0.003] ------- [4:255 -1:255 29 0] [0x2 2 1 [9 0] [8 4]] (REQUEST)
r 2.561727005 _6_ RTR  --- 0 AODV 52 [0 ffffffff 4 800] [energy 48.715805 ei 1.280 es 0.000 et 0.003 er 0.002] ------- [4:255 -1:255 29 0] [0x2 2 1 [9 0] [8 4]] (REQUEST)
r 2.561727281 _9_ RTR  --- 0 AODV 52 [0 ffffffff 4 800] [energy 48.718709 ei 1.280 es 0.000 et 0.000 er 0.001] ------- [4:255 -1:255 29 0] [0x2 2 1 [9 0] [8 4]] (REQUEST)
s 2.561727281 _9_ RTR  --- 0 AODV 44 [0 0 0 0] [energy 48.718709 ei 1.280 es 0.000 et 0.000 er 0.001] ------- [9:255 8:255 30 4] [0x4 1 [9 4] 10.000000] (REPLY)
r 2.561727458 _8_ RTR  --- 0 AODV 52 [0 ffffffff 4 800] [energy 48.715805 ei 1.280 es 0.000 et 0.003 er 0.002] ------- [4:255 -1:255 29 0] [0x2 2 1 [9 0] [8 4]] (REQUEST)
s 2.561911356 _2_ MAC  --- 0 AODV 110 [0 ffffffff 2 800] [energy 48.717829 ei 1.280 es 0.000 et 0.000 er 0.003] ------- [2:255 -1:255 29 0] [0x2 2 1 [9 0] [8 4]] (REQUEST)
N -t 2.561912 -n 4 -e 48.714820
N -t 2.561912 -n 1 -e 48.716844
N -t 2.561912 -n 0 -e 48.717284
N -t 2.561912 -n 5 -e 48.716844
N -t 2.561912 -n 3 -e 48.717284
N -t 2.561912 -n 7 -e 48.716844
N -t 2.561912 -n 6 -e 48.714820
N -t 2.561912 -n 8 -e 48.714820
N -t 2.561913 -n 9 -e 48.717724
s 2.562271270 _5_ RTR  --- 0 AODV 52 [0 ffffffff 8 800] [energy 48.716844 ei 1.280 es 0.000 et 0.000 er 0.004] ------- [5:255 -1:255 29 0] [0x2 2 1 [9 0] [8 4]] (REQUEST)
r 2.562791536 _4_ MAC  --- 0 AODV 52 [0 ffffffff 2 800] [energy 48.714820 ei 1.280 es 0.000 et 0.003 er 0.003] ------- [2:255 -1:255 29 0] [0x2 2 1 [9 0] [8 4]] (REQUEST)
r 2.562791760 _1_ MAC  --- 0 AODV 52 [0 ffffffff 2 800] [energy 48.716844 ei 1.280 es 0.000 et 0.000 er 0.004] ------- [2:255 -1:255 29 0] [0x2 2 1 [9 0] [8 4]] (REQUEST)
r 2.562791822 _0_ MAC  --- 0 AODV 52 [0 ffffffff 2 800] [energy 48.717284 ei 1.280 es 0.000 et 0.000 er 0.003] ------- [2:255 -1:255 29 0] [0x2 2 1 [9 0] [8 4]] (REQUEST)
r 2.562791937 _5_ MAC  --- 0 AODV 52 [0 ffffffff 2 800] [energy 48.716844 ei 1.280 es 0.000 et 0.000 er 0.004] ------- [2:255 -1:255 29 0] [0x2 2 1 [9 0] [8 4]] (REQUEST)
r 2.562791945 _3_ MAC  --- 0 AODV 52 [0 ffffffff 2 800] [energy 48.717284 ei 1.280 es 0.000 et 0.000 er 0.003] ------- [2:255 -1:255 29 0] [0x2 2 1 [9 0] [8 4]] (REQUEST)
r 2.562791967 _7_ MAC  --- 0 AODV 52 [0 ffffffff 2 800] [energy 48.716844 ei 1.280 es 0.000 et 0.000 er 0.004] ------- [2:255 -1:255 29 0] [0x2 2 1 [9 0] [8 4]] (REQUEST)
r 2.562792009 _6_ MAC  --- 0 AODV 52 [0 ffffffff 2 800] [energy 48.714820 ei 1.280 es 0.000 et 0.003 er 0.003] ------- [2:255 -1:255 29 0] [0x2 2 1 [9 0] [8 4]] (REQUEST)
r 2.562792463 _8_ MAC  --- 0 AODV 52 [0 ffffffff 2 800] [energy 48.714820 ei 1.280 es 0.000 et 0.003 er 0.003] ------- [2:255 -1:255 29 0] [0x2 2 1 [9 0] [8 4]] (REQUEST)
r 2.562792619 _9_ MAC  --- 0 AODV 52 [0 ffffffff 2 800] [energy 48.717724 ei 1.281 es 0.000 et 0.000 er 0.002] ------- [2:255 -1:255 29 0] [0x2 2 1 [9 0] [8 4]] (REQUEST)
r 2.562816536 _4_ RTR  --- 0 AODV 52 [0 ffffffff 2 800] [energy 48.714820 ei 1.280 es 0.000 et 0.003 er 0.003] ------- [2:255 -1:255 29 0] [0x2 2 1 [9 0] [8 4]] (REQUEST)
r 2.562816760 _1_ RTR  --- 0 AODV 52 [0 ffffffff 2 800] [energy 48.716844 ei 1.280 es 0.000 et 0.000 er 0.004] ------- [2:255 -1:255 29 0] [0x2 2 1 [9 0] [8 4]] (REQUEST)
r 2.562816822 _0_ RTR  --- 0 AODV 52 [0 ffffffff 2 800] [energy 48.717284 ei 1.280 es 0.000 et 0.000 er 0.003] ------- [2:255 -1:255 29 0] [0x2 2 1 [9 0] [8 4]] (REQUEST)
r 2.562816937 _5_ RTR  --- 0 AODV 52 [0 ffffffff 2 800] [energy 48.716844 ei 1.280 es 0.000 et 0.000 er 0.004] ------- [2:255 -1:255 29 0] [0x2 2 1 [9 0] [8 4]] (REQUEST)
r 2.562816945 _3_ RTR  --- 0 AODV 52 [0 ffffffff 2 800] [energy 48.717284 ei 1.280 es 0.000 et 0.000 er 0.003] ------- [2:255 -1:255 29 0] [0x2 2 1 [9 0] [8 4]] (REQUEST)
r 2.562816967 _7_ RTR  --- 0 AODV 52 [0 ffffffff 2 800] [energy 48.716844 ei 1.280 es 0.000 et 0.000 er 0.004] ------- [2:255 -1:255 29 0] [0x2 2 1 [9 0] [8 4]] (REQUEST)
r 2.562817009 _6_ RTR  --- 0 AODV 52 [0 ffffffff 2 800] [energy 48.714820 ei 1.280 es 0.000 et 0.003 er 0.003] ------- [2:255 -1:255 29 0] [0x2 2 1 [9 0] [8 4]] (REQUEST)
r 2.562817463 _8_ RTR  --- 0 AODV 52 [0 ffffffff 2 800] [energy 48.714820 ei 1.280 es 0.000 et 0.003 er 0.003] ------- [2:255 -1:255 29 0] [0x2 2 1 [9 0] [8 4]] (REQUEST)
r 2.562817619 _9_ RTR  --- 0 AODV 52 [0 ffffffff 2 800] [energy 48.717724 ei 1.281 es 0.000 et 0.000 er 0.002] ------- [2:255 -1:255 29 0] [0x2 2 1 [9 0] [8 4]] (REQUEST)
s 2.562817619 _9_ RTR  --- 0 AODV 44 [0 0 0 0] [energy 48.717724 ei 1.281 es 0.000 et 0.000 er 0.002] ------- [9:255 8:255 30 4] [0x4 1 [9 6] 10.000000] (REPLY)
D 2.562817619 _9_ IFQ  ARP 0 AODV 44 [0 0 9 800] [energy 48.717724 ei 1.281 es 0.000 et 0.000 er 0.002] ------- [9:255 8:255 30 4] [0x4 1 [9 4] 10.000000] (REPLY)
s 2.562901945 _3_ MAC  --- 0 AODV 110 [0 ffffffff 3 800] [energy 48.717284 ei 1.280 es 0.000 et 0.000 er 0.003] ------- [3:255 -1:255 28 0] [0x2 3 1 [9 0] [8 4]] (REQUEST)
N -t 2.562902 -n 4 -e 48.713885
N -t 2.562903 -n 2 -e 48.713885
N -t 2.562903 -n 7 -e 48.715909
N -t 2.562903 -n 0 -e 48.716349
N -t 2.562903 -n 9 -e 48.716789
N -t 2.562903 -n 1 -e 48.715909
N -t 2.562903 -n 5 -e 48.715908
N -t 2.562903 -n 6 -e 48.713884
r 2.563782363 _4_ MAC  --- 0 AODV 52 [0 ffffffff 3 800] [energy 48.713885 ei 1.280 es 0.000 et 0.003 er 0.004] ------- [3:255 -1:255 28 0] [0x2 3 1 [9 0] [8 4]] (REQUEST)
r 2.563782534 _2_ MAC  --- 0 AODV 52 [0 ffffffff 3 800] [energy 48.713885 ei 1.280 es 0.000 et 0.003 er 0.004] ------- [3:255 -1:255 28 0] [0x2 3 1 [9 0] [8 4]] (REQUEST)
r 2.563782675 _7_ MAC  --- 0 AODV 52 [0 ffffffff 3 800] [energy 48.715909 ei 1.280 es 0.000 et 0.000 er 0.004] ------- [3:255 -1:255 28 0] [0x2 3 1 [9 0] [8 4]] (REQUEST)
r 2.563782749 _0_ MAC  --- 0 AODV 52 [0 ffffffff 3 800] [energy 48.716349 ei 1.280 es 0.000 et 0.000 er 0.004] ------- [3:255 -1:255 28 0] [0x2 3 1 [9 0] [8 4]] (REQUEST)
r 2.563782851 _9_ MAC  --- 0 AODV 52 [0 ffffffff 3 800] [energy 48.716789 ei 1.281 es 0.000 et 0.000 er 0.003] ------- [3:255 -1:255 28 0] [0x2 3 1 [9 0] [8 4]] (REQUEST)
r 2.563782932 _1_ MAC  --- 0 AODV 52 [0 ffffffff 3 800] [energy 48.715909 ei 1.280 es 0.000 et 0.000 er 0.004] ------- [3:255 -1:255 28 0] [0x2 3 1 [9 0] [8 4]] (REQUEST)
r 2.563783114 _5_ MAC  --- 0 AODV 52 [0 ffffffff 3 800] [energy 48.715908 ei 1.280 es 0.000 et 0.000 er 0.004] ------- [3:255 -1:255 28 0] [0x2 3 1 [9 0] [8 4]] (REQUEST)
r 2.563783147 _6_ MAC  --- 0 AODV 52 [0 ffffffff 3 800] [energy 48.713884 ei 1.280 es 0.000 et 0.003 er 0.004] ------- [3:255 -1:255 28 0] [0x2 3 1 [9 0] [8 4]] (REQUEST)
r 2.563807363 _4_ RTR  --- 0 AODV 52 [0 ffffffff 3 800] [energy 48.713885 ei 1.280 es 0.000 et 0.003 er 0.004] ------- [3:255 -1:255 28 0] [0x2 3 1 [9 0] [8 4]] (REQUEST)
r 2.563807534 _2_ RTR  --- 0 AODV 52 [0 ffffffff 3 800] [energy 48.713885 ei 1.280 es 0.000 et 0.003 er 0.004] ------- [3:255 -1:255 28 0] [0x2 3 1 [9 0] [8 4]] (REQUEST)
r 2.563807675 _7_ RTR  --- 0 AODV 52 [0 ffffffff 3 800] [energy 48.715909 ei 1.280 es 0.000 et 0.000 er 0.004] ------- [3:255 -1:255 28 0] [0x2 3 1 [9 0] [8 4]] (REQUEST)
r 2.563807749 _0_ RTR  --- 0 AODV 52 [0 ffffffff 3 800] [energy 48.716349 ei 1.280 es 0.000 et 0.000 er 0.004] ------- [3:255 -1:255 28 0] [0x2 3 1 [9 0] [8 4]] (REQUEST)
r 2.563807851 _9_ RTR  --- 0 AODV 52 [0 ffffffff 3 800] [energy 48.716789 ei 1.281 es 0.000 et 0.000 er 0.003] ------- [3:255 -1:255 28 0] [0x2 3 1 [9 0] [8 4]] (REQUEST)
s 2.563807851 _9_ RTR  --- 0 AODV 44 [0 0 0 0] [energy 48.716789 ei 1.281 es 0.000 et 0.000 er 0.003] ------- [9:255 8:255 30 4] [0x4 1 [9 8] 10.000000] (REPLY)
D 2.563807851 _9_ IFQ  ARP 0 AODV 44 [0 0 9 800] [energy 48.716789 ei 1.281 es 0.000 et 0.000 er 0.003] ------- [9:255 8:255 30 4] [0x4 1 [9 6] 10.000000] (REPLY)
r 2.563807932 _1_ RTR  --- 0 AODV 52 [0 ffffffff 3 800] [energy 48.715909 ei 1.280 es 0.000 et 0.000 er 0.004] ------- [3:255 -1:255 28 0] [0x2 3 1 [9 0] [8 4]] (REQUEST)
r 2.563808114 _5_ RTR  --- 0 AODV 52 [0 ffffffff 3 800] [energy 48.715908 ei 1.280 es 0.000 et 0.000 er 0.004] ------- [3:255 -1:255 28 0] [0x2 3 1 [9 0] [8 4]] (REQUEST)
r 2.563808147 _6_ RTR  --- 0 AODV 52 [0 ffffffff 3 800] [energy 48.713884 ei 1.280 es 0.000 et 0.003 er 0.004] ------- [3:255 -1:255 28 0] [0x2 3 1 [9 0] [8 4]] (REQUEST)
s 2.563892851 _9_ MAC  --- 0 ARP 86 [0 ffffffff 9 806] [energy 48.716789 ei 1.281 es 0.000 et 0.000 er 0.003] ------- [REQUEST 9/9 0/4]
N -t 2.563894 -n 3 -e 48.713581
N -t 2.563894 -n 0 -e 48.715605
N -t 2.563894 -n 4 -e 48.713141
N -t 2.563894 -n 2 -e 48.713141
s 2.564253114 _5_ MAC  --- 0 AODV 110 [0 ffffffff 5 800] [energy 48.715908 ei 1.280 es 0.000 et 0.000 er 0.004] ------- [5:255 -1:255 29 0] [0x2 2 1 [9 0] [8 4]] (REQUEST)
N -t 2.564253 -n 1 -e 48.714793
N -t 2.564253 -n 6 -e 48.712769
N -t 2.564254 -n 2 -e 48.712589
D 2.564253695 _2_ MAC  COL 0 ARP 86 [0 ffffffff 9 806] [energy 48.712589 ei 1.280 es 0.000 et 0.003 er 0.005] ------- [REQUEST 9/9 0/4]
N -t 2.564254 -n 8 -e 48.713209
N -t 2.564254 -n 0 -e 48.715053
D 2.564253809 _0_ MAC  COL 0 ARP 86 [0 ffffffff 9 806] [energy 48.715053 ei 1.280 es 0.000 et 0.000 er 0.005] ------- [REQUEST 9/9 0/4]
N -t 2.564254 -n 4 -e 48.712589
D 2.564253870 _4_ MAC  COL 0 ARP 86 [0 ffffffff 9 806] [energy 48.712589 ei 1.280 es 0.000 et 0.003 er 0.005] ------- [REQUEST 9/9 0/4]
N -t 2.564254 -n 7 -e 48.714793
N -t 2.564254 -n 3 -e 48.713029
D 2.564254283 _3_ MAC  COL 0 ARP 86 [0 ffffffff 9 806] [energy 48.713029 ei 1.280 es 0.000 et 0.003 er 0.004] ------- [REQUEST 9/9 0/4]
s 2.564830851 _9_ MAC  --- 0 ARP 86 [0 ffffffff 9 806] [energy 48.714463 ei 1.281 es 0.000 et 0.002 er 0.003] ------- [REQUEST 9/9 0/4]
N -t 2.564832 -n 3 -e 48.712643
D 2.564831757 _3_ MAC  COL 0 AODV 110 [0 ffffffff 5 800] [energy 48.712643 ei 1.280 es 0.000 et 0.003 er 0.004] ------- [5:255 -1:255 29 0] [0x2 2 1 [9 0] [8 4]] (REQUEST)
N -t 2.564832 -n 0 -e 48.714667
D 2.564831937 _0_ MAC  COL 0 AODV 110 [0 ffffffff 5 800] [energy 48.714667 ei 1.280 es 0.000 et 0.000 er 0.005] ------- [5:255 -1:255 29 0] [0x2 2 1 [9 0] [8 4]] (REQUEST)
N -t 2.564832 -n 4 -e 48.712203
D 2.564831955 _4_ MAC  COL 0 AODV 110 [0 ffffffff 5 800] [energy 48.712203 ei 1.280 es 0.000 et 0.003 er 0.005] ------- [5:255 -1:255 29 0] [0x2 2 1 [9 0] [8 4]] (REQUEST)
N -t 2.564832 -n 2 -e 48.712203
r 2.565133325 _1_ MAC  --- 0 AODV 52 [0 ffffffff 5 800] [energy 48.714793 ei 1.280 es 0.000 et 0.000 er 0.005] ------- [5:255 -1:255 29 0] [0x2 2 1 [9 0] [8 4]] (REQUEST)
r 2.565133420 _6_ MAC  --- 0 AODV 52 [0 ffffffff 5 800] [energy 48.712769 ei 1.280 es 0.000 et 0.003 er 0.004] ------- [5:255 -1:255 29 0] [0x2 2 1 [9 0] [8 4]] (REQUEST)
D 2.565133695 _2_ MAC  COL 0 AODV 110 [0 ffffffff 5 800] [energy 48.712203 ei 1.280 es 0.000 et 0.003 er 0.005] ------- [5:255 -1:255 29 0] [0x2 2 1 [9 0] [8 4]] (REQUEST)
r 2.565133772 _8_ MAC  --- 0 AODV 52 [0 ffffffff 5 800] [energy 48.713209 ei 1.280 es 0.000 et 0.003 er 0.004] ------- [5:255 -1:255 29 0] [0x2 2 1 [9 0] [8 4]] (REQUEST)
r 2.565134052 _7_ MAC  --- 0 AODV 52 [0 ffffffff 5 800] [energy 48.714793 ei 1.280 es 0.000 et 0.000 er 0.005] ------- [5:255 -1:255 29 0] [0x2 2 1 [9 0] [8 4]] (REQUEST)
r 2.565158325 _1_ RTR  --- 0 AODV 52 [0 ffffffff 5 800] [energy 48.714793 ei 1.280 es 0.000 et 0.000 er 0.005] ------- [5:255 -1:255 29 0] [0x2 2 1 [9 0] [8 4]] (REQUEST)
r 2.565158420 _6_ RTR  --- 0 AODV 52 [0 ffffffff 5 800] [energy 48.712769 ei 1.280 es 0.000 et 0.003 er 0.004] ------- [5:255 -1:255 29 0] [0x2 2 1 [9 0] [8 4]] (REQUEST)
r 2.565158772 _8_ RTR  --- 0 AODV 52 [0 ffffffff 5 800] [energy 48.713209 ei 1.280 es 0.000 et 0.003 er 0.004] ------- [5:255 -1:255 29 0] [0x2 2 1 [9 0] [8 4]] (REQUEST)
r 2.565159052 _7_ RTR  --- 0 AODV 52 [0 ffffffff 5 800] [energy 48.714793 ei 1.280 es 0.000 et 0.000 er 0.005] ------- [5:255 -1:255 29 0] [0x2 2 1 [9 0] [8 4]] (REQUEST)
D 2.565519757 _3_ MAC  COL 0 ARP 86 [0 ffffffff 9 806] [energy 48.712643 ei 1.280 es 0.000 et 0.003 er 0.004] ------- [REQUEST 9/9 0/4]
D 2.565519937 _0_ MAC  COL 0 ARP 86 [0 ffffffff 9 806] [energy 48.714667 ei 1.280 es 0.000 et 0.000 er 0.005] ------- [REQUEST 9/9 0/4]
D 2.565519955 _4_ MAC  COL 0 ARP 86 [0 ffffffff 9 806] [energy 48.712203 ei 1.280 es 0.000 et 0.003 er 0.005] ------- [REQUEST 9/9 0/4]
s 2.565588851 _9_ MAC  --- 0 ARP 86 [0 ffffffff 9 806] [energy 48.712068 ei 1.281 es 0.000 et 0.005 er 0.003] ------- [REQUEST 9/9 0/4]
N -t 2.565590 -n 3 -e 48.711920
N -t 2.565590 -n 0 -e 48.713944
N -t 2.565590 -n 4 -e 48.711480
N -t 2.565590 -n 2 -e 48.711480
s 2.565851285 _1_ RTR  --- 0 AODV 52 [0 ffffffff 8 800] [energy 48.714793 ei 1.280 es 0.000 et 0.000 er 0.005] ------- [1:255 -1:255 29 0] [0x2 2 1 [9 0] [8 4]] (REQUEST)
s 2.566024761 _7_ RTR  --- 0 AODV 52 [0 ffffffff 8 800] [energy 48.714793 ei 1.280 es 0.000 et 0.000 er 0.005] ------- [7:255 -1:255 29 0] [0x2 2 1 [9 0] [8 4]] (REQUEST)
s 2.566166285 _1_ MAC  --- 0 AODV 110 [0 ffffffff 1 800] [energy 48.714793 ei 1.280 es 0.000 et 0.000 er 0.005] ------- [1:255 -1:255 29 0] [0x2 2 1 [9 0] [8 4]] (REQUEST)
N -t 2.566166 -n 5 -e 48.711373
N -t 2.566167 -n 2 -e 48.710711
D 2.566166689 _2_ MAC  COL 0 ARP 86 [0 ffffffff 9 806] [energy 48.710711 ei 1.280 es 0.000 et 0.003 er 0.007] ------- [REQUEST 9/9 0/4]
N -t 2.566167 -n 6 -e 48.711373
N -t 2.566167 -n 0 -e 48.713175
D 2.566166778 _0_ MAC  COL 0 ARP 86 [0 ffffffff 9 806] [energy 48.713175 ei 1.280 es 0.000 et 0.000 er 0.007] ------- [REQUEST 9/9 0/4]
N -t 2.566167 -n 4 -e 48.710711
D 2.566166855 _4_ MAC  COL 0 ARP 86 [0 ffffffff 9 806] [energy 48.710711 ei 1.280 es 0.000 et 0.003 er 0.007] ------- [REQUEST 9/9 0/4]
N -t 2.566167 -n 8 -e 48.711812
N -t 2.566167 -n 7 -e 48.713396
N -t 2.566167 -n 3 -e 48.711151
D 2.566167272 _3_ MAC  COL 0 ARP 86 [0 ffffffff 9 806] [energy 48.711151 ei 1.280 es 0.000 et 0.003 er 0.006] ------- [REQUEST 9/9 0/4]
r 2.567046496 _5_ MAC  --- 0 AODV 52 [0 ffffffff 1 800] [energy 48.711373 ei 1.280 es 0.000 et 0.003 er 0.005] ------- [1:255 -1:255 29 0] [0x2 2 1 [9 0] [8 4]] (REQUEST)
D 2.567046689 _2_ MAC  COL 0 AODV 110 [0 ffffffff 1 800] [energy 48.710711 ei 1.280 es 0.000 et 0.003 er 0.007] ------- [1:255 -1:255 29 0] [0x2 2 1 [9 0] [8 4]] (REQUEST)
r 2.567046727 _6_ MAC  --- 0 AODV 52 [0 ffffffff 1 800] [energy 48.711373 ei 1.280 es 0.000 et 0.003 er 0.005] ------- [1:255 -1:255 29 0] [0x2 2 1 [9 0] [8 4]] (REQUEST)
D 2.567046778 _0_ MAC  COL 0 AODV 110 [0 ffffffff 1 800] [energy 48.713175 ei 1.280 es 0.000 et 0.000 er 0.007] ------- [1:255 -1:255 29 0] [0x2 2 1 [9 0] [8 4]] (REQUEST)
D 2.567046855 _4_ MAC  COL 0 AODV 110 [0 ffffffff 1 800] [energy 48.710711 ei 1.280 es 0.000 et 0.003 er 0.007] ------- [1:255 -1:255 29 0] [0x2 2 1 [9 0] [8 4]] (REQUEST)
r 2.567047137 _8_ MAC  --- 0 AODV 52 [0 ffffffff 1 800] [energy 48.711812 ei 1.281 es 0.000 et 0.003 er 0.004] ------- [1:255 -1:255 29 0] [0x2 2 1 [9 0] [8 4]] (REQUEST)
r 2.567047159 _7_ MAC  --- 0 AODV 52 [0 ffffffff 1 800] [energy 48.713396 ei 1.280 es 0.000 et 0.000 er 0.006] ------- [1:255 -1:255 29 0] [0x2 2 1 [9 0] [8 4]] (REQUEST)
D 2.567047272 _3_ MAC  COL 0 AODV 110 [0 ffffffff 1 800] [energy 48.711151 ei 1.280 es 0.000 et 0.003 er 0.006] ------- [1:255 -1:255 29 0] [0x2 2 1 [9 0] [8 4]] (REQUEST)
r 2.567071496 _5_ RTR  --- 0 AODV 52 [0 ffffffff 1 800] [energy 48.711373 ei 1.280 es 0.000 et 0.003 er 0.005] ------- [1:255 -1:255 29 0] [0x2 2 1 [9 0] [8 4]] (REQUEST)
r 2.567071727 _6_ RTR  --- 0 AODV 52 [0 ffffffff 1 800] [energy 48.711373 ei 1.280 es 0.000 et 0.003 er 0.005] ------- [1:255 -1:255 29 0] [0x2 2 1 [9 0] [8 4]] (REQUEST)
r 2.567072137 _8_ RTR  --- 0 AODV 52 [0 ffffffff 1 800] [energy 48.711812 ei 1.281 es 0.000 et 0.003 er 0.004] ------- [1:255 -1:255 29 0] [0x2 2 1 [9 0] [8 4]] (REQUEST)
r 2.567072159 _7_ RTR  --- 0 AODV 52 [0 ffffffff 1 800] [energy 48.713396 ei 1.280 es 0.000 et 0.000 er 0.006] ------- [1:255 -1:255 29 0] [0x2 2 1 [9 0] [8 4]] (REQUEST)
s 2.567477159 _7_ MAC  --- 0 AODV 110 [0 ffffffff 7 800] [energy 48.713396 ei 1.280 es 0.000 et 0.000 er 0.006] ------- [7:255 -1:255 29 0] [0x2 2 1 [9 0] [8 4]] (REQUEST)
N -t 2.567478 -n 2 -e 48.709616
N -t 2.567478 -n 4 -e 48.709616
N -t 2.567478 -n 3 -e 48.710055
N -t 2.567478 -n 6 -e 48.710277
N -t 2.567478 -n 1 -e 48.710277
N -t 2.567478 -n 5 -e 48.710277
N -t 2.567478 -n 0 -e 48.712079
N -t 2.567478 -n 8 -e 48.710717
r 2.568357769 _2_ MAC  --- 0 AODV 52 [0 ffffffff 7 800] [energy 48.709616 ei 1.280 es 0.000 et 0.003 er 0.007] ------- [7:255 -1:255 29 0] [0x2 2 1 [9 0] [8 4]] (REQUEST)
r 2.568357795 _4_ MAC  --- 0 AODV 52 [0 ffffffff 7 800] [energy 48.709616 ei 1.280 es 0.000 et 0.003 er 0.007] ------- [7:255 -1:255 29 0] [0x2 2 1 [9 0] [8 4]] (REQUEST)
r 2.568357889 _3_ MAC  --- 0 AODV 52 [0 ffffffff 7 800] [energy 48.710055 ei 1.280 es 0.000 et 0.003 er 0.007] ------- [7:255 -1:255 29 0] [0x2 2 1 [9 0] [8 4]] (REQUEST)
r 2.568357937 _6_ MAC  --- 0 AODV 52 [0 ffffffff 7 800] [energy 48.710277 ei 1.281 es 0.000 et 0.003 er 0.006] ------- [7:255 -1:255 29 0] [0x2 2 1 [9 0] [8 4]] (REQUEST)
r 2.568358033 _1_ MAC  --- 0 AODV 52 [0 ffffffff 7 800] [energy 48.710277 ei 1.281 es 0.000 et 0.003 er 0.006] ------- [7:255 -1:255 29 0] [0x2 2 1 [9 0] [8 4]] (REQUEST)
r 2.568358096 _5_ MAC  --- 0 AODV 52 [0 ffffffff 7 800] [energy 48.710277 ei 1.281 es 0.000 et 0.003 er 0.006] ------- [7:255 -1:255 29 0] [0x2 2 1 [9 0] [8 4]] (REQUEST)
r 2.568358232 _0_ MAC  --- 0 AODV 52 [0 ffffffff 7 800] [energy 48.712079 ei 1.280 es 0.000 et 0.000 er 0.007] ------- [7:255 -1:255 29 0] [0x2 2 1 [9 0] [8 4]] (REQUEST)
r 2.568358281 _8_ MAC  --- 0 AODV 52 [0 ffffffff 7 800] [energy 48.710717 ei 1.281 es 0.000 et 0.003 er 0.005] ------- [7:255 -1:255 29 0] [0x2 2 1 [9 0] [8 4]] (REQUEST)
r 2.568382769 _2_ RTR  --- 0 AODV 52 [0 ffffffff 7 800] [energy 48.709616 ei 1.280 es 0.000 et 0.003 er 0.007] ------- [7:255 -1:255 29 0] [0x2 2 1 [9 0] [8 4]] (REQUEST)
r 2.568382795 _4_ RTR  --- 0 AODV 52 [0 ffffffff 7 800] [energy 48.709616 ei 1.280 es 0.000 et 0.003 er 0.007] ------- [7:255 -1:255 29 0] [0x2 2 1 [9 0] [8 4]] (REQUEST)
r 2.568382889 _3_ RTR  --- 0 AODV 52 [0 ffffffff 7 800] [energy 48.710055 ei 1.280 es 0.000 et 0.003 er 0.007] ------- [7:255 -1:255 29 0] [0x2 2 1 [9 0] [8 4]] (REQUEST)
r 2.568382937 _6_ RTR  --- 0 AODV 52 [0 ffffffff 7 800] [energy 48.710277 ei 1.281 es 0.000 et 0.003 er 0.006] ------- [7:255 -1:255 29 0] [0x2 2 1 [9 0] [8 4]] (REQUEST)
r 2.568383033 _1_ RTR  --- 0 AODV 52 [0 ffffffff 7 800] [energy 48.710277 ei 1.281 es 0.000 et 0.003 er 0.006] ------- [7:255 -1:255 29 0] [0x2 2 1 [9 0] [8 4]] (REQUEST)
r 2.568383096 _5_ RTR  --- 0 AODV 52 [0 ffffffff 7 800] [energy 48.710277 ei 1.281 es 0.000 et 0.003 er 0.006] ------- [7:255 -1:255 29 0] [0x2 2 1 [9 0] [8 4]] (REQUEST)
r 2.568383232 _0_ RTR  --- 0 AODV 52 [0 ffffffff 7 800] [energy 48.712079 ei 1.280 es 0.000 et 0.000 er 0.007] ------- [7:255 -1:255 29 0] [0x2 2 1 [9 0] [8 4]] (REQUEST)
r 2.568383281 _8_ RTR  --- 0 AODV 52 [0 ffffffff 7 800] [energy 48.710717 ei 1.281 es 0.000 et 0.003 er 0.005] ------- [7:255 -1:255 29 0] [0x2 2 1 [9 0] [8 4]] (REQUEST)
s 2.568444719 _0_ RTR  --- 0 AODV 52 [0 ffffffff 6 800] [energy 48.712079 ei 1.280 es 0.000 et 0.000 er 0.007] ------- [0:255 -1:255 28 0] [0x2 3 1 [9 0] [8 4]] (REQUEST)
s 2.569059719 _0_ MAC  --- 0 AODV 110 [0 ffffffff 0 800] [energy 48.712079 ei 1.280 es 0.000 et 0.000 er 0.007] ------- [0:255 -1:255 28 0] [0x2 3 1 [9 0] [8 4]] (REQUEST)
N -t 2.569060 -n 2 -e 48.708385
N -t 2.569060 -n 4 -e 48.708384
N -t 2.569060 -n 1 -e 48.709046
N -t 2.569060 -n 5 -e 48.709046
N -t 2.569061 -n 3 -e 48.708824
N -t 2.569061 -n 6 -e 48.709046
N -t 2.569061 -n 7 -e 48.709046
N -t 2.569061 -n 9 -e 48.707490