M 0.0 nn 30 x 500 y 500 rp AODV
M 0.0 sc setdest30.tcl cp cbr30.tcl seed 1.0
M 0.0 prop Propagation/TwoRayGround ant Antenna/OmniAntenna
M 0.00000 0 (144.95, 347.97, 0.00), (308.54, 21.06), 40.67
M 0.00000 1 (307.75, 85.21, 0.00), (318.79, 322.45), 23.17
M 0.00000 2 (244.63, 481.21, 0.00), (278.85, 79.94), 20.43
M 0.00000 3 (330.63, 428.03, 0.00), (421.12, 150.29), 39.59
M 0.00000 4 (409.15, 392.03, 0.00), (322.23, 277.02), 13.53
M 0.00000 5 (317.07, 382.44, 0.00), (55.77, 174.17), 35.15
M 0.00000 6 (463.83, 61.40, 0.00), (354.43, 475.66), 36.21
M 0.00000 7 (372.56, 172.44, 0.00), (488.57, 84.76), 33.71
M 0.00000 8 (73.71, 141.93, 0.00), (252.04, 23.25), 46.17
M 0.00000 9 (286.64, 291.64, 0.00), (345.82, 429.39), 30.19
M 0.00000 10 (190.38, 187.41, 0.00), (227.15, 416.07), 27.07
M 0.00000 11 (460.63, 166.45, 0.00), (357.56, 476.78), 38.17
M 0.00000 12 (457.30, 354.07, 0.00), (444.88, 29.04), 28.89
M 0.00000 13 (104.81, 228.04, 0.00), (395.76, 199.63), 12.85
M 0.00000 14 (409.29, 181.13, 0.00), (81.68, 212.16), 10.37
M 0.00000 15 (230.36, 151.28, 0.00), (306.60, 264.41), 24.39
M 0.00000 16 (179.74, 316.59, 0.00), (430.01, 28.96), 38.12
M 0.00000 17 (440.20, 178.82, 0.00), (338.55, 23.32), 26.59
M 0.00000 18 (39.00, 121.65, 0.00), (415.11, 316.43), 12.10
M 0.00000 19 (284.89, 371.88, 0.00), (136.42, 190.87), 12.22
M 0.00000 20 (347.49, 291.87, 0.00), (78.05, 84.11), 35.88
M 0.00000 21 (191.21, 434.82, 0.00), (29.51, 301.42), 12.17
M 0.00000 22 (404.39, 17.80, 0.00), (248.59, 8.08), 14.90
M 0.00000 23 (84.25, 415.90, 0.00), (157.94, 444.03), 17.56
M 0.00000 25 (401.52, 434.04, 0.00), (251.33, 438.06), 16.51
M 0.00000 27 (171.53, 382.45, 0.00), (432.44, 165.64), 15.32
M 1.00000 24 (177.23, 112.42, 0.00), (211.00, 118.35), 19.22
M 1.00000 26 (289.65, 42.10, 0.00), (494.79, 403.53), 11.78
s 2.556838879 _28_ AGT  --- 0 cbr 512 [0 0 0 0] [energy 50.000000 ei 0.000 es 0.000 et 0.000 er 0.000] ------- [28:0 29:0 32 0] [0] 0 0
r 2.556838879 _28_ RTR  --- 0 cbr 512 [0 0 0 0] [energy 50.000000 ei 0.000 es 0.000 et 0.000 er 0.000] ------- [28:0 29:0 32 0] [0] 0 0
s 2.556838879 _28_ RTR  --- 0 AODV 52 [0 0 0 0] [energy 50.000000 ei 0.000 es 0.000 et 0.000 er 0.000] ------- [28:255 -1:255 30 0] [0x2 1 1 [29 0] [28 4]] (REQUEST)
s 2.556953879 _28_ MAC  --- 0 AODV 110 [0 ffffffff 1c 800] [energy 50.000000 ei 0.000 es 0.000 et 0.000 er 0.000] ------- [28:255 -1:255 30 0] [0x2 1 1 [29 0] [28 4]] (REQUEST)
N -t 2.556954 -n 7 -e 48.720643
N -t 2.556954 -n 22 -e 48.720643
N -t 2.556954 -n 17 -e 48.720643
N -t 2.556954 -n 6 -e 48.720643
N -t 2.556955 -n 26 -e 48.720643
N -t 2.556955 -n 14 -e 48.720643
N -t 2.556955 -n 1 -e 48.720643
N -t 2.556955 -n 11 -e 48.720643
N -t 2.556955 -n 12 -e 48.720643
N -t 2.556955 -n 15 -e 48.720643
N -t 2.556955 -n 24 -e 48.720643
N -t 2.556955 -n 20 -e 48.720643
N -t 2.556955 -n 8 -e 48.720642
N -t 2.556955 -n 16 -e 48.720642
N -t 2.556955 -n 3 -e 48.720642
N -t 2.556955 -n 4 -e 48.720642
N -t 2.556955 -n 10 -e 48.720642
r 2.557834325 _7_ MAC  --- 0 AODV 52 [0 ffffffff 1c 800] [energy 48.720643 ei 1.278 es 0.000 et 0.000 er 0.001] ------- [28:255 -1:255 30 0] [0x2 1 1 [29 0] [28 4]] (REQUEST)
r 2.557834327 _22_ MAC  --- 0 AODV 52 [0 ffffffff 1c 800] [energy 48.720643 ei 1.278 es 0.000 et 0.000 er 0.001] ------- [28:255 -1:255 30 0] [0x2 1 1 [29 0] [28 4]] (REQUEST)
r 2.557834398 _17_ MAC  --- 0 AODV 52 [0 ffffffff 1c 800] [energy 48.720643 ei 1.278 es 0.000 et 0.000 er 0.001] ------- [28:255 -1:255 30 0] [0x2 1 1 [29 0] [28 4]] (REQUEST)
r 2.557834420 _6_ MAC  --- 0 AODV 52 [0 ffffffff 1c 800] [energy 48.720643 ei 1.278 es 0.000 et 0.000 er 0.001] ------- [28:255 -1:255 30 0] [0x2 1 1 [29 0] [28 4]] (REQUEST)
r 2.557834577 _26_ MAC  --- 0 AODV 52 [0 ffffffff 1c 800] [energy 48.720643 ei 1.278 es 0.000 et 0.000 er 0.001] ------- [28:255 -1:255 30 0] [0x2 1 1 [29 0] [28 4]] (REQUEST)
r 2.557834605 _14_ MAC  --- 0 AODV 52 [0 ffffffff 1c 800] [energy 48.720643 ei 1.278 es 0.000 et 0.000 er 0.001] ------- [28:255 -1:255 30 0] [0x2 1 1 [29 0] [28 4]] (REQUEST)
r 2.557834673 _1_ MAC  --- 0 AODV 52 [0 ffffffff 1c 800] [energy 48.720643 ei 1.278 es 0.000 et 0.000 er 0.001] ------- [28:255 -1:255 30 0] [0x2 1 1 [29 0] [28 4]] (REQUEST)
r 2.557834773 _11_ MAC  --- 0 AODV 52 [0 ffffffff 1c 800] [energy 48.720643 ei 1.278 es 0.000 et 0.000 er 0.001] ------- [28:255 -1:255 30 0] [0x2 1 1 [29 0] [28 4]] (REQUEST)
r 2.557834825 _12_ MAC  --- 0 AODV 52 [0 ffffffff 1c 800] [energy 48.720643 ei 1.278 es 0.000 et 0.000 er 0.001] ------- [28:255 -1:255 30 0] [0x2 1 1 [29 0] [28 4]] (REQUEST)
r 2.557834913 _15_ MAC  --- 0 AODV 52 [0 ffffffff 1c 800] [energy 48.720643 ei 1.278 es 0.000 et 0.000 er 0.001] ------- [28:255 -1:255 30 0] [0x2 1 1 [29 0] [28 4]] (REQUEST)
r 2.557834932 _24_ MAC  --- 0 AODV 52 [0 ffffffff 1c 800] [energy 48.720643 ei 1.278 es 0.000 et 0.000 er 0.001] ------- [28:255 -1:255 30 0] [0x2 1 1 [29 0] [28 4]] (REQUEST)
r 2.557834966 _20_ MAC  --- 0 AODV 52 [0 ffffffff 1c 800] [energy 48.720643 ei 1.278 es 0.000 et 0.000 er 0.001] ------- [28:255 -1:255 30 0] [0x2 1 1 [29 0] [28 4]] (REQUEST)
r 2.557835001 _8_ MAC  --- 0 AODV 52 [0 ffffffff 1c 800] [energy 48.720642 ei 1.278 es 0.000 et 0.000 er 0.001] ------- [28:255 -1:255 30 0] [0x2 1 1 [29 0] [28 4]] (REQUEST)
r 2.557835056 _16_ MAC  --- 0 AODV 52 [0 ffffffff 1c 800] [energy 48.720642 ei 1.278 es 0.000 et 0.000 er 0.001] ------- [28:255 -1:255 30 0] [0x2 1 1 [29 0] [28 4]] (REQUEST)
r 2.557835076 _3_ MAC  --- 0 AODV 52 [0 ffffffff 1c 800] [energy 48.720642 ei 1.278 es 0.000 et 0.000 er 0.001] ------- [28:255 -1:255 30 0] [0x2 1 1 [29 0] [28 4]] (REQUEST)
r 2.557835149 _4_ MAC  --- 0 AODV 52 [0 ffffffff 1c 800] [energy 48.720642 ei 1.278 es 0.000 et 0.000 er 0.001] ------- [28:255 -1:255 30 0] [0x2 1 1 [29 0] [28 4]] (REQUEST)
r 2.557835189 _10_ MAC  --- 0 AODV 52 [0 ffffffff 1c 800] [energy 48.720642 ei 1.278 es 0.000 et 0.000 er 0.001] ------- [28:255 -1:255 30 0] [0x2 1 1 [29 0] [28 4]] (REQUEST)
r 2.557859325 _7_ RTR  --- 0 AODV 52 [0 ffffffff 1c 800] [energy 48.720643 ei 1.278 es 0.000 et 0.000 er 0.001] ------- [28:255 -1:255 30 0] [0x2 1 1 [29 0] [28 4]] (REQUEST)
r 2.557859327 _22_ RTR  --- 0 AODV 52 [0 ffffffff 1c 800] [energy 48.720643 ei 1.278 es 0.000 et 0.000 er 0.001] ------- [28:255 -1:255 30 0] [0x2 1 1 [29 0] [28 4]] (REQUEST)
r 2.557859398 _17_ RTR  --- 0 AODV 52 [0 ffffffff 1c 800] [energy 48.720643 ei 1.278 es 0.000 et 0.000 er 0.001] ------- [28:255 -1:255 30 0] [0x2 1 1 [29 0] [28 4]] (REQUEST)
r 2.557859420 _6_ RTR  --- 0 AODV 52 [0 ffffffff 1c 800] [energy 48.720643 ei 1.278 es 0.000 et 0.000 er 0.001] ------- [28:255 -1:255 30 0] [0x2 1 1 [29 0] [28 4]] (REQUEST)
r 2.557859577 _26_ RTR  --- 0 AODV 52 [0 ffffffff 1c 800] [energy 48.720643 ei 1.278 es 0.000 et 0.000 er 0.001] ------- [28:255 -1:255 30 0] [0x2 1 1 [29 0] [28 4]] (REQUEST)
r 2.557859605 _14_ RTR  --- 0 AODV 52 [0 ffffffff 1c 800] [energy 48.720643 ei 1.278 es 0.000 et 0.000 er 0.001] ------- [28:255 -1:255 30 0] [0x2 1 1 [29 0] [28 4]] (REQUEST)
r 2.557859673 _1_ RTR  --- 0 AODV 52 [0 ffffffff 1c 800] [energy 48.720643 ei 1.278 es 0.000 et 0.000 er 0.001] ------- [28:255 -1:255 30 0] [0x2 1 1 [29 0] [28 4]] (REQUEST)
r 2.557859773 _11_ RTR  --- 0 AODV 52 [0 ffffffff 1c 800] [energy 48.720643 ei 1.278 es 0.000 et 0.000 er 0.001] ------- [28:255 -1:255 30 0] [0x2 1 1 [29 0] [28 4]] (REQUEST)
r 2.557859825 _12_ RTR  --- 0 AODV 52 [0 ffffffff 1c 800] [energy 48.720643 ei 1.278 es 0.000 et 0.000 er 0.001] ------- [28:255 -1:255 30 0] [0x2 1 1 [29 0] [28 4]] (REQUEST)
r 2.557859913 _15_ RTR  --- 0 AODV 52 [0 ffffffff 1c 800] [energy 48.720643 ei 1.278 es 0.000 et 0.000 er 0.001] ------- [28:255 -1:255 30 0] [0x2 1 1 [29 0] [28 4]] (REQUEST)
r 2.557859932 _24_ RTR  --- 0 AODV 52 [0 ffffffff 1c 800] [energy 48.720643 ei 1.278 es 0.000 et 0.000 er 0.001] ------- [28:255 -1:255 30 0] [0x2 1 1 [29 0] [28 4]] (REQUEST)
r 2.557859966 _20_ RTR  --- 0 AODV 52 [0 ffffffff 1c 800] [energy 48.720643 ei 1.278 es 0.000 et 0.000 er 0.001] ------- [28:255 -1:255 30 0] [0x2 1 1 [29 0] [28 4]] (REQUEST)
r 2.557860001 _8_ RTR  --- 0 AODV 52 [0 ffffffff 1c 800] [energy 48.720642 ei 1.278 es 0.000 et 0.000 er 0.001] ------- [28:255 -1:255 30 0] [0x2 1 1 [29 0] [28 4]] (REQUEST)
r 2.557860056 _16_ RTR  --- 0 AODV 52 [0 ffffffff 1c 800] [energy 48.720642 ei 1.278 es 0.000 et 0.000 er 0.001] ------- [28:255 -1:255 30 0] [0x2 1 1 [29 0] [28 4]] (REQUEST)
r 2.557860076 _3_ RTR  --- 0 AODV 52 [0 ffffffff 1c 800] [energy 48.720642 ei 1.278 es 0.000 et 0.000 er 0.001] ------- [28:255 -1:255 30 0] [0x2 1 1 [29 0] [28 4]] (REQUEST)
r 2.557860149 _4_ RTR  --- 0 AODV 52 [0 ffffffff 1c 800] [energy 48.720642 ei 1.278 es 0.000 et 0.000 er 0.001] ------- [28:255 -1:255 30 0] [0x2 1 1 [29 0] [28 4]] (REQUEST)
r 2.557860189 _10_ RTR  --- 0 AODV 52 [0 ffffffff 1c 800] [energy 48.720642 ei 1.278 es 0.000 et 0.000 er 0.001] ------- [28:255 -1:255 30 0] [0x2 1 1 [29 0] [28 4]] (REQUEST)
s 2.558287878 _24_ RTR  --- 0 AODV 52 [0 ffffffff 1c 800] [energy 48.720643 ei 1.278 es 0.000 et 0.000 er 0.001] ------- [24:255 -1:255 29 0] [0x2 2 1 [29 0] [28 4]] (REQUEST)
s 2.558682878 _24_ MAC  --- 0 AODV 110 [0 ffffffff 18 800] [energy 48.720643 ei 1.278 es 0.000 et 0.000 er 0.001] ------- [24:255 -1:255 29 0] [0x2 2 1 [29 0] [28 4]] (REQUEST)
N -t 2.558683 -n 8 -e 48.719338
N -t 2.558683 -n 15 -e 48.719338
N -t 2.558683 -n 1 -e 48.719338
N -t 2.558683 -n 26 -e 48.719338
N -t 2.558683 -n 13 -e 48.719778
N -t 2.558683 -n 16 -e 48.719338
N -t 2.558683 -n 20 -e 48.719338
N -t 2.558683 -n 0 -e 48.719778
N -t 2.558683 -n 10 -e 48.719338
N -t 2.558683 -n 18 -e 48.719778
N -t 2.558684 -n 14 -e 48.719338
N -t 2.558684 -n 22 -e 48.719338
N -t 2.558684 -n 17 -e 48.719338
N -t 2.558684 -n 5 -e 48.719778
N -t 2.558684 -n 7 -e 48.719338
N -t 2.558684 -n 6 -e 48.719338
N -t 2.558684 -n 19 -e 48.719778
N -t 2.558684 -n 27 -e 48.719778
N -t 2.558684 -n 11 -e 48.719338
N -t 2.558684 -n 3 -e 48.719338
N -t 2.558684 -n 9 -e 48.719778
N -t 2.558684 -n 12 -e 48.719338
N -t 2.558684 -n 21 -e 48.719778
N -t 2.558684 -n 4 -e 48.719338
N -t 2.558684 -n 2 -e 48.719778
N -t 2.558684 -n 28 -e 48.717314
N -t 2.558684 -n 23 -e 48.719778
N -t 2.558684 -n 25 -e 48.719778
s 2.558740552 _7_ RTR  --- 0 AODV 52 [0 ffffffff 1c 800] [energy 48.719338 ei 1.279 es 0.000 et 0.000 er 0.002] ------- [7:255 -1:255 29 0] [0x2 2 1 [29 0] [28 4]] (REQUEST)
s 2.558801578 _10_ RTR  --- 0 AODV 52 [0 ffffffff 1c 800] [energy 48.719338 ei 1.279 es 0.000 et 0.000 er 0.002] ------- [10:255 -1:255 29 0] [0x2 2 1 [29 0] [28 4]] (REQUEST)
s 2.558998084 _8_ RTR  --- 0 AODV 52 [0 ffffffff 1c 800] [energy 48.719338 ei 1.279 es 0.000 et 0.000 er 0.002] ------- [8:255 -1:255 29 0] [0x2 2 1 [29 0] [28 4]] (REQUEST)
s 2.559501367 _15_ RTR  --- 0 AODV 52 [0 ffffffff 1c 800] [energy 48.719338 ei 1.279 es 0.000 et 0.000 er 0.002] ------- [15:255 -1:255 29 0] [0x2 2 1 [29 0] [28 4]] (REQUEST)
r 2.559563057 _8_ MAC  --- 0 AODV 52 [0 ffffffff 18 800] [energy 48.719338 ei 1.279 es 0.000 et 0.000 er 0.002] ------- [24:255 -1:255 29 0] [0x2 2 1 [29 0] [28 4]] (REQUEST)
r 2.559563223 _15_ MAC  --- 0 AODV 52 [0 ffffffff 18 800] [energy 48.719338 ei 1.279 es 0.000 et 0.000 er 0.002] ------- [24:255 -1:255 29 0] [0x2 2 1 [29 0] [28 4]] (REQUEST)
r 2.559563235 _1_ MAC  --- 0 AODV 52 [0 ffffffff 18 800] [energy 48.719338 ei 1.279 es 0.000 et 0.000 er 0.002] ------- [24:255 -1:255 29 0] [0x2 2 1 [29 0] [28 4]] (REQUEST)
r 2.559563243 _26_ MAC  --- 0 AODV 52 [0 ffffffff 18 800] [energy 48.719338 ei 1.279 es 0.000 et 0.000 er 0.002] ------- [24:255 -1:255 29 0] [0x2 2 1 [29 0] [28 4]] (REQUEST)
r 2.559563303 _13_ MAC  --- 0 AODV 52 [0 ffffffff 18 800] [energy 48.719778 ei 1.279 es 0.000 et 0.000 er 0.001] ------- [24:255 -1:255 29 0] [0x2 2 1 [29 0] [28 4]] (REQUEST)
r 2.559563313 _16_ MAC  --- 0 AODV 52 [0 ffffffff 18 800] [energy 48.719338 ei 1.279 es 0.000 et 0.000 er 0.002] ------- [24:255 -1:255 29 0] [0x2 2 1 [29 0] [28 4]] (REQUEST)
r 2.559563332 _20_ MAC  --- 0 AODV 52 [0 ffffffff 18 800] [energy 48.719338 ei 1.279 es 0.000 et 0.000 er 0.002] ------- [24:255 -1:255 29 0] [0x2 2 1 [29 0] [28 4]] (REQUEST)
r 2.559563338 _0_ MAC  --- 0 AODV 52 [0 ffffffff 18 800] [energy 48.719778 ei 1.279 es 0.000 et 0.000 er 0.001] ------- [24:255 -1:255 29 0] [0x2 2 1 [29 0] [28 4]] (REQUEST)
r 2.559563339 _10_ MAC  --- 0 AODV 52 [0 ffffffff 18 800] [energy 48.719338 ei 1.279 es 0.000 et 0.000 er 0.002] ------- [24:255 -1:255 29 0] [0x2 2 1 [29 0] [28 4]] (REQUEST)
r 2.559563349 _18_ MAC  --- 0 AODV 52 [0 ffffffff 18 800] [energy 48.719778 ei 1.279 es 0.000 et 0.000 er 0.001] ------- [24:255 -1:255 29 0] [0x2 2 1 [29 0] [28 4]] (REQUEST)
r 2.559563505 _14_ MAC  --- 0 AODV 52 [0 ffffffff 18 800] [energy 48.719338 ei 1.279 es 0.000 et 0.000 er 0.002] ------- [24:255 -1:255 29 0] [0x2 2 1 [29 0] [28 4]] (REQUEST)
r 2.559563509 _22_ MAC  --- 0 AODV 52 [0 ffffffff 18 800] [energy 48.719338 ei 1.279 es 0.000 et 0.000 er 0.002] ------- [24:255 -1:255 29 0] [0x2 2 1 [29 0] [28 4]] (REQUEST)
r 2.559563532 _17_ MAC  --- 0 AODV 52 [0 ffffffff 18 800] [energy 48.719338 ei 1.279 es 0.000 et 0.000 er 0.002] ------- [24:255 -1:255 29 0] [0x2 2 1 [29 0] [28 4]] (REQUEST)
r 2.559563586 _5_ MAC  --- 0 AODV 52 [0 ffffffff 18 800] [energy 48.719778 ei 1.279 es 0.000 et 0.000 er 0.001] ------- [24:255 -1:255 29 0] [0x2 2 1 [29 0] [28 4]] (REQUEST)
r 2.559563660 _7_ MAC  --- 0 AODV 52 [0 ffffffff 18 800] [energy 48.719338 ei 1.279 es 0.000 et 0.000 er 0.002] ------- [24:255 -1:255 29 0] [0x2 2 1 [29 0] [28 4]] (REQUEST)
r 2.559563664 _6_ MAC  --- 0 AODV 52 [0 ffffffff 18 800] [energy 48.719338 ei 1.279 es 0.000 et 0.000 er 0.002] ------- [24:255 -1:255 29 0] [0x2 2 1 [29 0] [28 4]] (REQUEST)
r 2.559563669 _19_ MAC  --- 0 AODV 52 [0 ffffffff 18 800] [energy 48.719778 ei 1.279 es 0.000 et 0.000 er 0.001] ------- [24:255 -1:255 29 0] [0x2 2 1 [29 0] [28 4]] (REQUEST)
r 2.559563677 _27_ MAC  --- 0 AODV 52 [0 ffffffff 18 800] [energy 48.719778 ei 1.279 es 0.000 et 0.000 er 0.001] ------- [24:255 -1:255 29 0] [0x2 2 1 [29 0] [28 4]] (REQUEST)
r 2.559563758 _11_ MAC  --- 0 AODV 52 [0 ffffffff 18 800] [energy 48.719338 ei 1.279 es 0.000 et 0.000 er 0.002] ------- [24:255 -1:255 29 0] [0x2 2 1 [29 0] [28 4]] (REQUEST)
r 2.559563759 _3_ MAC  --- 0 AODV 52 [0 ffffffff 18 800] [energy 48.719338 ei 1.279 es 0.000 et 0.000 er 0.002] ------- [24:255 -1:255 29 0] [0x2 2 1 [29 0] [28 4]] (REQUEST)
r 2.559563773 _9_ MAC  --- 0 AODV 52 [0 ffffffff 18 800] [energy 48.719778 ei 1.279 es 0.000 et 0.000 er 0.001] ------- [24:255 -1:255 29 0] [0x2 2 1 [29 0] [28 4]] (REQUEST)
r 2.559563865 _12_ MAC  --- 0 AODV 52 [0 ffffffff 18 800] [energy 48.719338 ei 1.279 es 0.000 et 0.000 er 0.002] ------- [24:255 -1:255 29 0] [0x2 2 1 [29 0] [28 4]] (REQUEST)
r 2.559563878 _21_ MAC  --- 0 AODV 52 [0 ffffffff 18 800] [energy 48.719778 ei 1.279 es 0.000 et 0.000 er 0.001] ------- [24:255 -1:255 29 0] [0x2 2 1 [29 0] [28 4]] (REQUEST)
r 2.559563899 _4_ MAC  --- 0 AODV 52 [0 ffffffff 18 800] [energy 48.719338 ei 1.279 es 0.000 et 0.000 er 0.002] ------- [24:255 -1:255 29 0] [0x2 2 1 [29 0] [28 4]] (REQUEST)
r 2.559563926 _2_ MAC  --- 0 AODV 52 [0 ffffffff 18 800] [energy 48.719778 ei 1.279 es 0.000 et 0.000 er 0.001] ------- [24:255 -1:255 29 0] [0x2 2 1 [29 0] [28 4]] (REQUEST)
r 2.559563931 _28_ MAC  --- 0 AODV 52 [0 ffffffff 18 800] [energy 48.717314 ei 1.279 es 0.000 et 0.003 er 0.001] ------- [24:255 -1:255 29 0] [0x2 2 1 [29 0] [28 4]] (REQUEST)
r 2.559563959 _23_ MAC  --- 0 AODV 52 [0 ffffffff 18 800] [energy 48.719778 ei 1.279 es 0.000 et 0.000 er 0.001] ------- [24:255 -1:255 29 0] [0x2 2 1 [29 0] [28 4]] (REQUEST)
r 2.559564052 _25_ MAC  --- 0 AODV 52 [0 ffffffff 18 800] [energy 48.719778 ei 1.279 es 0.000 et 0.000 er 0.001] ------- [24:255 -1:255 29 0] [0x2 2 1 [29 0] [28 4]] (REQUEST)
r 2.559588057 _8_ RTR  --- 0 AODV 52 [0 ffffffff 18 800] [energy 48.719338 ei 1.279 es 0.000 et 0.000 er 0.002] ------- [24:255 -1:255 29 0] [0x2 2 1 [29 0] [28 4]] (REQUEST)
r 2.559588223 _15_ RTR  --- 0 AODV 52 [0 ffffffff 18 800] [energy 48.719338 ei 1.279 es 0.000 et 0.000 er 0.002] ------- [24:255 -1:255 29 0] [0x2 2 1 [29 0] [28 4]] (REQUEST)
r 2.559588235 _1_ RTR  --- 0 AODV 52 [0 ffffffff 18 800] [energy 48.719338 ei 1.279 es 0.000 et 0.000 er 0.002] ------- [24:255 -1:255 29 0] [0x2 2 1 [29 0] [28 4]] (REQUEST)
r 2.559588243 _26_ RTR  --- 0 AODV 52 [0 ffffffff 18 800] [energy 48.719338 ei 1.279 es 0.000 et 0.000 er 0.002] ------- [24:255 -1:255 29 0] [0x2 2 1 [29 0] [28 4]] (REQUEST)
r 2.559588303 _13_ RTR  --- 0 AODV 52 [0 ffffffff 18 800] [energy 48.719778 ei 1.279 es 0.000 et 0.000 er 0.001] ------- [24:255 -1:255 29 0] [0x2 2 1 [29 0] [28 4]] (REQUEST)
r 2.559588313 _16_ RTR  --- 0 AODV 52 [0 ffffffff 18 800] [energy 48.719338 ei 1.279 es 0.000 et 0.000 er 0.002] ------- [24:255 -1:255 29 0] [0x2 2 1 [29 0] [28 4]] (REQUEST)
r 2.559588332 _20_ RTR  --- 0 AODV 52 [0 ffffffff 18 800] [energy 48.719338 ei 1.279 es 0.000 et 0.000 er 0.002] ------- [24:255 -1:255 29 0] [0x2 2 1 [29 0] [28 4]] (REQUEST)
r 2.559588338 _0_ RTR  --- 0 AODV 52 [0 ffffffff 18 800] [energy 48.719778 ei 1.279 es 0.000 et 0.000 er 0.001] ------- [24:255 -1:255 29 0] [0x2 2 1 [29 0] [28 4]] (REQUEST)
r 2.559588339 _10_ RTR  --- 0 AODV 52 [0 ffffffff 18 800] [energy 48.719338 ei 1.279 es 0.000 et 0.000 er 0.002] ------- [24:255 -1:255 29 0] [0x2 2 1 [29 0] [28 4]] (REQUEST)
r 2.559588349 _18_ RTR  --- 0 AODV 52 [0 ffffffff 18 800] [energy 48.719778 ei 1.279 es 0.000 et 0.000 er 0.001] ------- [24:255 -1:255 29 0] [0x2 2 1 [29 0] [28 4]] (REQUEST)
r 2.559588505 _14_ RTR  --- 0 AODV 52 [0 ffffffff 18 800] [energy 48.719338 ei 1.279 es 0.000 et 0.000 er 0.002] ------- [24:255 -1:255 29 0] [0x2 2 1 [29 0] [28 4]] (REQUEST)
r 2.559588509 _22_ RTR  --- 0 AODV 52 [0 ffffffff 18 800] [energy 48.719338 ei 1.279 es 0.000 et 0.000 er 0.002] ------- [24:255 -1:255 29 0] [0x2 2 1 [29 0] [28 4]] (REQUEST)
r 2.559588532 _17_ RTR  --- 0 AODV 52 [0 ffffffff 18 800] [energy 48.719338 ei 1.279 es 0.000 et 0.000 er 0.002] ------- [24:255 -1:255 29 0] [0x2 2 1 [29 0] [28 4]] (REQUEST)
r 2.559588586 _5_ RTR  --- 0 AODV 52 [0 ffffffff 18 800] [energy 48.719778 ei 1.279 es 0.000 et 0.000 er 0.001] ------- [24:255 -1:255 29 0] [0x2 2 1 [29 0] [28 4]] (REQUEST)
r 2.559588660 _7_ RTR  --- 0 AODV 52 [0 ffffffff 18 800] [energy 48.719338 ei 1.279 es 0.000 et 0.000 er 0.002] ------- [24:255 -1:255 29 0] [0x2 2 1 [29 0] [28 4]] (REQUEST)
r 2.559588664 _6_ RTR  --- 0 AODV 52 [0 ffffffff 18 800] [energy 48.719338 ei 1.279 es 0.000 et 0.000 er 0.002] ------- [24:255 -1:255 29 0] [0x2 2 1 [29 0] [28 4]] (REQUEST)
r 2.559588669 _19_ RTR  --- 0 AODV 52 [0 ffffffff 18 800] [energy 48.719778 ei 1.279 es 0.000 et 0.000 er 0.001] ------- [24:255 -1:255 29 0] [0x2 2 1 [29 0] [28 4]] (REQUEST)
r 2.559588677 _27_ RTR  --- 0 AODV 52 [0 ffffffff 18 800] [energy 48.719778 ei 1.279 es 0.000 et 0.000 er 0.001] ------- [24:255 -1:255 29 0] [0x2 2 1 [29 0] [28 4]] (REQUEST)
r 2.559588758 _11_ RTR  --- 0 AODV 52 [0 ffffffff 18 800] [energy 48.719338 ei 1.279 es 0.000 et 0.000 er 0.002] ------- [24:255 -1:255 29 0] [0x2 2 1 [29 0] [28 4]] (REQUEST)
r 2.559588759 _3_ RTR  --- 0 AODV 52 [0 ffffffff 18 800] [energy 48.719338 ei 1.279 es 0.000 et 0.000 er 0.002] ------- [24:255 -1:255 29 0] [0x2 2 1 [29 0] [28 4]] (REQUEST)
r 2.559588773 _9_ RTR  --- 0 AODV 52 [0 ffffffff 18 800] [energy 48.719778 ei 1.279 es 0.000 et 0.000 er 0.001] ------- [24:255 -1:255 29 0] [0x2 2 1 [29 0] [28 4]] (REQUEST)
r 2.559588865 _12_ RTR  --- 0 AODV 52 [0 ffffffff 18 800] [energy 48.719338 ei 1.279 es 0.000 et 0.000 er 0.002] ------- [24:255 -1:255 29 0] [0x2 2 1 [29 0] [28 4]] (REQUEST)
r 2.559588878 _21_ RTR  --- 0 AODV 52 [0 ffffffff 18 800] [energy 48.719778 ei 1.279 es 0.000 et 0.000 er 0.001] ------- [24:255 -1:255 29 0] [0x2 2 1 [29 0] [28 4]] (REQUEST)
r 2.559588899 _4_ RTR  --- 0 AODV 52 [0 ffffffff 18 800] [energy 48.719338 ei 1.279 es 0.000 et 0.000 er 0.002] ------- [24:255 -1:255 29 0] [0x2 2 1 [29 0] [28 4]] (REQUEST)
r 2.559588926 _2_ RTR  --- 0 AODV 52 [0 ffffffff 18 800] [energy 48.719778 ei 1.279 es 0.000 et 0.000 er 0.001] ------- [24:255 -1:255 29 0] [0x2 2 1 [29 0] [28 4]] (REQUEST)
r 2.559588931 _28_ RTR  --- 0 AODV 52 [0 ffffffff 18 800] [energy 48.717314 ei 1.279 es 0.000 et 0.003 er 0.001] ------- [24:255 -1:255 29 0] [0x2 2 1 [29 0] [28 4]] (REQUEST)
r 2.559588959 _23_ RTR  --- 0 AODV 52 [0 ffffffff 18 800] [energy 48.719778 ei 1.279 es 0.000 et 0.000 er 0.001] ------- [24:255 -1:255 29 0] [0x2 2 1 [29 0] [28 4]] (REQUEST)
r 2.559589052 _25_ RTR  --- 0 AODV 52 [0 ffffffff 18 800] [energy 48.719778 ei 1.279 es 0.000 et 0.000 er 0.001] ------- [24:255 -1:255 29 0] [0x2 2 1 [29 0] [28 4]] (REQUEST)
s 2.559608202 _4_ RTR  --- 0 AODV 52 [0 ffffffff 1c 800] [energy 48.719338 ei 1.279 es 0.000 et 0.000 er 0.002] ------- [4:255 -1:255 29 0] [0x2 2 1 [29 0] [28 4]] (REQUEST)
s 2.559633057 _8_ MAC  --- 0 AODV 110 [0 ffffffff 8 800] [energy 48.719338 ei 1.279 es 0.000 et 0.000 er 0.002] ------- [8:255 -1:255 29 0] [0x2 2 1 [29 0] [28 4]] (REQUEST)
N -t 2.559633 -n 24 -e 48.716399
N -t 2.559633 -n 18 -e 48.718863
N -t 2.559633 -n 26 -e 48.718423
N -t 2.559634 -n 13 -e 48.718863
N -t 2.559634 -n 1 -e 48.718423
N -t 2.559634 -n 15 -e 48.718423
N -t 2.559634 -n 0 -e 48.718863
N -t 2.559634 -n 16 -e 48.718423
N -t 2.559634 -n 10 -e 48.718423
N -t 2.559634 -n 20 -e 48.718423
N -t 2.559634 -n 22 -e 48.718423
N -t 2.559634 -n 17 -e 48.718423
N -t 2.559634 -n 14 -e 48.718423
N -t 2.559634 -n 5 -e 48.718863
N -t 2.559634 -n 7 -e 48.718423
N -t 2.559634 -n 6 -e 48.718423
N -t 2.559634 -n 27 -e 48.718863
N -t 2.559634 -n 19 -e 48.718863
N -t 2.559634 -n 11 -e 48.718423
N -t 2.559634 -n 3 -e 48.718423
N -t 2.559634 -n 9 -e 48.718863
N -t 2.559634 -n 28 -e 48.716399
N -t 2.559634 -n 21 -e 48.718863
N -t 2.559634 -n 12 -e 48.718423
N -t 2.559634 -n 23 -e 48.718863
N -t 2.559634 -n 4 -e 48.718423
N -t 2.559634 -n 2 -e 48.718863
s 2.560205622 _14_ RTR  --- 0 AODV 52 [0 ffffffff 1c 800] [energy 48.718423 ei 1.279 es 0.000 et 0.000 er 0.003] ------- [14:255 -1:255 29 0] [0x2 2 1 [29 0] [28 4]] (REQUEST)
r 2.560513236 _24_ MAC  --- 0 AODV 52 [0 ffffffff 8 800] [energy 48.716399 ei 1.279 es 0.000 et 0.003 er 0.002] ------- [8:255 -1:255 29 0] [0x2 2 1 [29 0] [28 4]] (REQUEST)
r 2.560513461 _18_ MAC  --- 0 AODV 52 [0 ffffffff 8 800] [energy 48.718863 ei 1.279 es 0.000 et 0.000 er 0.002] ------- [8:255 -1:255 29 0] [0x2 2 1 [29 0] [28 4]] (REQUEST)
r 2.560513483 _26_ MAC  --- 0 AODV 52 [0 ffffffff 8 800] [energy 48.718423 ei 1.279 es 0.000 et 0.000 er 0.003] ------- [8:255 -1:255 29 0] [0x2 2 1 [29 0] [28 4]] (REQUEST)
r 2.560513565 _13_ MAC  --- 0 AODV 52 [0 ffffffff 8 800] [energy 48.718863 ei 1.279 es 0.000 et 0.000 er 0.002] ------- [8:255 -1:255 29 0] [0x2 2 1 [29 0] [28 4]] (REQUEST)
r 2.560513571 _1_ MAC  --- 0 AODV 52 [0 ffffffff 8 800] [energy 48.718423 ei 1.279 es 0.000 et 0.000 er 0.003] ------- [8:255 -1:255 29 0] [0x2 2 1 [29 0] [28 4]] (REQUEST)
r 2.560513581 _15_ MAC  --- 0 AODV 52 [0 ffffffff 8 800] [energy 48.718423 ei 1.279 es 0.000 et 0.000 er 0.003] ------- [8:255 -1:255 29 0] [0x2 2 1 [29 0] [28 4]] (REQUEST)
r 2.560513655 _0_ MAC  --- 0 AODV 52 [0 ffffffff 8 800] [energy 48.718863 ei 1.279 es 0.000 et 0.000 er 0.002] ------- [8:255 -1:255 29 0] [0x2 2 1 [29 0] [28 4]] (REQUEST)
r 2.560513661 _16_ MAC  --- 0 AODV 52 [0 ffffffff 8 800] [energy 48.718423 ei 1.279 es 0.000 et 0.000 er 0.003] ------- [8:255 -1:255 29 0] [0x2 2 1 [29 0] [28 4]] (REQUEST)
r 2.560513663 _10_ MAC  --- 0 AODV 52 [0 ffffffff 8 800] [energy 48.718423 ei 1.279 es 0.000 et 0.000 er 0.003] ------- [8:255 -1:255 29 0] [0x2 2 1 [29 0] [28 4]] (REQUEST)
r 2.560513689 _20_ MAC  --- 0 AODV 52 [0 ffffffff 8 800] [energy 48.718423 ei 1.279 es 0.000 et 0.000 er 0.003] ------- [8:255 -1:255 29 0] [0x2 2 1 [29 0] [28 4]] (REQUEST)
r 2.560513736 _22_ MAC  --- 0 AODV 52 [0 ffffffff 8 800] [energy 48.718423 ei 1.279 es 0.000 et 0.000 er 0.003] ------- [8:255 -1:255 29 0] [0x2 2 1 [29 0] [28 4]] (REQUEST)
r 2.560513841 _17_ MAC  --- 0 AODV 52 [0 ffffffff 8 800] [energy 48.718423 ei 1.279 es 0.000 et 0.000 er 0.003] ------- [8:255 -1:255 29 0] [0x2 2 1 [29 0] [28 4]] (REQUEST)
r 2.560513845 _14_ MAC  --- 0 AODV 52 [0 ffffffff 8 800] [energy 48.718423 ei 1.279 es 0.000 et 0.000 er 0.003] ------- [8:255 -1:255 29 0] [0x2 2 1 [29 0] [28 4]] (REQUEST)
r 2.560513926 _5_ MAC  --- 0 AODV 52 [0 ffffffff 8 800] [energy 48.718863 ei 1.279 es 0.000 et 0.000 er 0.002] ------- [8:255 -1:255 29 0] [0x2 2 1 [29 0] [28 4]] (REQUEST)
r 2.560513966 _7_ MAC  --- 0 AODV 52 [0 ffffffff 8 800] [energy 48.718423 ei 1.279 es 0.000 et 0.000 er 0.003] ------- [8:255 -1:255 29 0] [0x2 2 1 [29 0] [28 4]] (REQUEST)
r 2.560513984 _6_ MAC  --- 0 AODV 52 [0 ffffffff 8 800] [energy 48.718423 ei 1.279 es 0.000 et 0.000 er 0.003] ------- [8:255 -1:255 29 0] [0x2 2 1 [29 0] [28 4]] (REQUEST)
r 2.560513999 _27_ MAC  --- 0 AODV 52 [0 ffffffff 8 800] [energy 48.718863 ei 1.279 es 0.000 et 0.000 er 0.002] ------- [8:255 -1:255 29 0] [0x2 2 1 [29 0] [28 4]] (REQUEST)
r 2.560514013 _19_ MAC  --- 0 AODV 52 [0 ffffffff 8 800] [energy 48.718863 ei 1.279 es 0.000 et 0.000 er 0.002] ------- [8:255 -1:255 29 0] [0x2 2 1 [29 0] [28 4]] (REQUEST)
r 2.560514110 _11_ MAC  --- 0 AODV 52 [0 ffffffff 8 800] [energy 48.718423 ei 1.279 es 0.000 et 0.000 er 0.003] ------- [8:255 -1:255 29 0] [0x2 2 1 [29 0] [28 4]] (REQUEST)
r 2.560514117 _3_ MAC  --- 0 AODV 52 [0 ffffffff 8 800] [energy 48.718423 ei 1.279 es 0.000 et 0.000 er 0.003] ------- [8:255 -1:255 29 0] [0x2 2 1 [29 0] [28 4]] (REQUEST)
r 2.560514126 _9_ MAC  --- 0 AODV 52 [0 ffffffff 8 800] [energy 48.718863 ei 1.279 es 0.000 et 0.000 er 0.002] ------- [8:255 -1:255 29 0] [0x2 2 1 [29 0] [28 4]] (REQUEST)
r 2.560514179 _28_ MAC  --- 0 AODV 52 [0 ffffffff 8 800] [energy 48.716399 ei 1.279 es 0.000 et 0.003 er 0.002] ------- [8:255 -1:255 29 0] [0x2 2 1 [29 0] [28 4]] (REQUEST)
r 2.560514185 _21_ MAC  --- 0 AODV 52 [0 ffffffff 8 800] [energy 48.718863 ei 1.279 es 0.000 et 0.000 er 0.002] ------- [8:255 -1:255 29 0] [0x2 2 1 [29 0] [28 4]] (REQUEST)
r 2.560514218 _12_ MAC  --- 0 AODV 52 [0 ffffffff 8 800] [energy 48.718423 ei 1.279 es 0.000 et 0.000 er 0.003] ------- [8:255 -1:255 29 0] [0x2 2 1 [29 0] [28 4]] (REQUEST)
r 2.560514252 _23_ MAC  --- 0 AODV 52 [0 ffffffff 8 800] [energy 48.718863 ei 1.279 es 0.000 et 0.000 er 0.002] ------- [8:255 -1:255 29 0] [0x2 2 1 [29 0] [28 4]] (REQUEST)
r 2.560514257 _4_ MAC  --- 0 AODV 52 [0 ffffffff 8 800] [energy 48.718423 ei 1.279 es 0.000 et 0.000 er 0.003] ------- [8:255 -1:255 29 0] [0x2 2 1 [29 0] [28 4]] (REQUEST)
r 2.560514260 _2_ MAC  --- 0 AODV 52 [0 ffffffff 8 800] [energy 48.718863 ei 1.279 es 0.000 et 0.000 er 0.002] ------- [8:255 -1:255 29 0] [0x2 2 1 [29 0] [28 4]] (REQUEST)
r 2.560538236 _24_ RTR  --- 0 AODV 52 [0 ffffffff 8 800] [energy 48.716399 ei 1.279 es 0.000 et 0.003 er 0.002] ------- [8:255 -1:255 29 0] [0x2 2 1 [29 0] [28 4]] (REQUEST)
r 2.560538461 _18_ RTR  --- 0 AODV 52 [0 ffffffff 8 800] [energy 48.718863 ei 1.279 es 0.000 et 0.000 er 0.002] ------- [8:255 -1:255 29 0] [0x2 2 1 [29 0] [28 4]] (REQUEST)
r 2.560538483 _26_ RTR  --- 0 AODV 52 [0 ffffffff 8 800] [energy 48.718423 ei 1.279 es 0.000 et 0.000 er 0.003] ------- [8:255 -1:255 29 0] [0x2 2 1 [29 0] [28 4]] (REQUEST)
r 2.560538565 _13_ RTR  --- 0 AODV 52 [0 ffffffff 8 800] [energy 48.718863 ei 1.279 es 0.000 et 0.000 er 0.002] ------- [8:255 -1:255 29 0] [0x2 2 1 [29 0] [28 4]] (REQUEST)
r 2.560538571 _1_ RTR  --- 0 AODV 52 [0 ffffffff 8 800] [energy 48.718423 ei 1.279 es 0.000 et 0.000 er 0.003] ------- [8:255 -1:255 29 0] [0x2 2 1 [29 0] [28 4]] (REQUEST)
r 2.560538581 _15_ RTR  --- 0 AODV 52 [0 ffffffff 8 800] [energy 48.718423 ei 1.279 es 0.000 et 0.000 er 0.003] ------- [8:255 -1:255 29 0] [0x2 2 1 [29 0] [28 4]] (REQUEST)
r 2.560538655 _0_ RTR  --- 0 AODV 52 [0 ffffffff 8 800] [energy 48.718863 ei 1.279 es 0.000 et 0.000 er 0.002] ------- [8:255 -1:255 29 0] [0x2 2 1 [29 0] [28 4]] (REQUEST)
r 2.560538661 _16_ RTR  --- 0 AODV 52 [0 ffffffff 8 800] [energy 48.718423 ei 1.279 es 0.000 et 0.000 er 0.003] ------- [8:255 -1:255 29 0] [0x2 2 1 [29 0] [28 4]] (REQUEST)
r 2.560538663 _10_ RTR  --- 0 AODV 52 [0 ffffffff 8 800] [energy 48.718423 ei 1.279 es 0.000 et 0.000 er 0.003] ------- [8:255 -1:255 29 0] [0x2 2 1 [29 0] [28 4]] (REQUEST)
r 2.560538689 _20_ RTR  --- 0 AODV 52 [0 ffffffff 8 800] [energy 48.718423 ei 1.279 es 0.000 et 0.000 er 0.003] ------- [8:255 -1:255 29 0] [0x2 2 1 [29 0] [28 4]] (REQUEST)
r 2.560538736 _22_ RTR  --- 0 AODV 52 [0 ffffffff 8 800] [energy 48.718423 ei 1.279 es 0.000 et 0.000 er 0.003] ------- [8:255 -1:255 29 0] [0x2 2 1 [29 0] [28 4]] (REQUEST)
r 2.560538841 _17_ RTR  --- 0 AODV 52 [0 ffffffff 8 800] [energy 48.718423 ei 1.279 es 0.000 et 0.000 er 0.003] ------- [8:255 -1:255 29 0] [0x2 2 1 [29 0] [28 4]] (REQUEST)
r 2.560538845 _14_ RTR  --- 0 AODV 52 [0 ffffffff 8 800] [energy 48.718423 ei 1.279 es 0.000 et 0.000 er 0.003] ------- [8:255 -1:255 29 0] [0x2 2 1 [29 0] [28 4]] (REQUEST)
r 2.560538926 _5_ RTR  --- 0 AODV 52 [0 ffffffff 8 800] [energy 48.718863 ei 1.279 es 0.000 et 0.000 er 0.002] ------- [8:255 -1:255 29 0] [0x2 2 1 [29 0] [28 4]] (REQUEST)
r 2.560538966 _7_ RTR  --- 0 AODV 52 [0 ffffffff 8 800] [energy 48.718423 ei 1.279 es 0.000 et 0.000 er 0.003] ------- [8:255 -1:255 29 0] [0x2 2 1 [29 0] [28 4]] (REQUEST)
r 2.560538984 _6_ RTR  --- 0 AODV 52 [0 ffffffff 8 800] [energy 48.718423 ei 1.279 es 0.000 et 0.000 er 0.003] ------- [8:255 -1:255 29 0] [0x2 2 1 [29 0] [28 4]] (REQUEST)
r 2.560538999 _27_ RTR  --- 0 AODV 52 [0 ffffffff 8 800] [energy 48.718863 ei 1.279 es 0.000 et 0.000 er 0.002] ------- [8:255 -1:255 29 0] [0x2 2 1 [29 0] [28 4]] (REQUEST)
r 2.560539013 _19_ RTR  --- 0 AODV 52 [0 ffffffff 8 800] [energy 48.718863 ei 1.279 es 0.000 et 0.000 er 0.002] ------- [8:255 -1:255 29 0] [0x2 2 1 [29 0] [28 4]] (REQUEST)