n -t * -s 0  -x 325.51896588596202 -y 225.48361923559401 -Z 0 -z 20  -v circle -c green
n -t * -s 1  -x 420.49863386520099 -y 299.284521665233 -Z 0 -z 20  -v circle -c green
n -t * -s 2  -x 121.656908258944 -y 453.64780185249202 -Z 0 -z 20  -v circle -c green
n -t * -s 3  -x 389.036298594333 -y 411.90351293793202 -Z 0 -z 20  -v circle -c green
n -t * -s 4  -x 476.36344285765603 -y 368.90222207449 -Z 0 -z 20  -v circle -c green
n -t * -s 5  -x 168.78188380660299 -y 153.05537703342699 -Z 0 -z 20  -v circle -c green
n -t * -s 6  -x 32.282543302226998 -y 308.72036137474601 -Z 0 -z 20  -v circle -c green
n -t * -s 7  -x 23.357625784907999 -y 448.98653551684703 -Z 0 -z 20  -v circle -c green
n -t * -s 8  -x 183.15109473081 -y 26.011107119338 -Z 0 -z 20  -v circle -c green
n -t * -s 9  -x 311.32118153730499 -y 10.890169712983999 -Z 0 -z 20  -v circle -c green
n -t * -s 10  -x 223.933736346247 -y 122.46491549832299 -Z 0 -z 20  -v circle -c green
n -t * -s 11  -x 228.01937091351201 -y 129.73850813824899 -Z 0 -z 20  -v circle -c green
n -t * -s 12  -x 43.441580034757003 -y 303.03930608373503 -Z 0 -z 20  -v circle -c green
n -t * -s 13  -x 257.90305380798799 -y 364.171064749263 -Z 0 -z 20  -v circle -c green
n -t * -s 14  -x 463.22350282000599 -y 318.563275682079 -Z 0 -z 20  -v circle -c green
n -t * -s 15  -x 490.95174288795403 -y 400.29820596380802 -Z 0 -z 20  -v circle -c green
n -t * -s 16  -x 96.982065628346007 -y 429.97397888325798 -Z 0 -z 20  -v circle -c green
n -t * -s 17  -x 360.55531538918302 -y 56.151057518884002 -Z 0 -z 20  -v circle -c green
n -t * -s 18  -x 500 -y 0 -Z 0 -z 20  -v circle -c green
n -t * -s 19  -x 0 -y 500 -Z 0 -z 20  -v circle -c green
V -t * -v 1.0a5 -a 0
W -t * -x 500 -y 500
A -t * -n 1 -p 0 -o 0x7fffffff -c 30 -a 1
A -t * -h 1 -m 1073741823 -s 0
n -t 0.000000 -s 1 -x 420.498634 -y 299.284522 -U -36.179399 -V 13.619067 -T 7.659239
n -t 0.000000 -s 2 -x 121.656908 -y 453.647802 -U 42.418165 -V 7.598447 -T 2.436137
n -t 0.000000 -s 3 -x 389.036299 -y 411.903513 -U 2.245432 -V -11.728201 -T 27.680176
n -t 0.000000 -s 4 -x 476.363443 -y 368.902222 -U -42.047111 -V -19.966343 -T 4.185509
n -t 0.000000 -s 6 -x 32.282543 -y 308.720361 -U 38.631384 -V -4.046962 -T 10.378073
n -t 0.000000 -s 8 -x 183.151095 -y 26.011107 -U -18.836713 -V 44.005561 -T 3.270390
n -t 0.000000 -s 9 -x 311.321182 -y 10.890170 -U 24.859626 -V 10.231524 -T 7.453628
n -t 0.000000 -s 10 -x 223.933736 -y 122.464915 -U 6.078236 -V 13.829331 -T 23.877380
n -t 0.000000 -s 11 -x 228.019371 -y 129.738508 -U 11.171160 -V 5.144015 -T 6.238579
n -t 0.000000 -s 12 -x 43.441580 -y 303.039306 -U 5.345368 -V -38.025776 -T 6.351584
n -t 0.000000 -s 13 -x 257.903054 -y 364.171065 -U -6.318770 -V -17.042883 -T 19.130347
n -t 0.000000 -s 14 -x 463.223503 -y 318.563276 -U 5.953110 -V -34.941743 -T 4.673357
n -t 0.000000 -s 15 -x 490.951743 -y 400.298206 -U -12.239805 -V -10.176584 -T 15.313610
n -t 0.000000 -s 16 -x 96.982066 -y 429.973979 -U 11.600894 -V -2.334256 -T 2.960082
n -t 0.000000 -s 17 -x 360.555315 -y 56.151058 -U -34.006075 -V 15.994446 -T 8.649555
n -t 1.000000 -s 0 -x 325.518966 -y 225.483619 -U -24.280866 -V 31.897028 -T 3.783818
n -t 1.000000 -s 5 -x 168.781884 -y 153.055377 -U -24.325237 -V 30.093268 -T 5.227865
n -t 1.000000 -s 7 -x 23.357626 -y 448.986536 -U 44.852946 -V -8.558517 -T 4.542789
n -t 2.436137 -s 2 -x 224.993389 -y 472.158663 -U 0.000000 -V 0.000000 -T 0.000000
+ -t 2.556838879 -s 18 -d -1 -p cbr -e 512 -c 2 -a 0 -i 0 -k AGT 
- -t 2.556838879 -s 18 -d -1 -p cbr -e 512 -c 2 -a 0 -i 0 -k AGT
h -t 2.556838879 -s 18 -d -1 -p cbr -e 512 -c 2 -a 0 -i 0 -k AGT
+ -t 2.556838879 -s 18 -d -1 -p AODV -e 52 -c 2 -a 0 -i 0 -k RTR 
- -t 2.556838879 -s 18 -d -1 -p AODV -e 52 -c 2 -a 0 -i 0 -k RTR
h -t 2.556838879 -s 18 -d -1 -p AODV -e 52 -c 2 -a 0 -i 0 -k RTR
+ -t 2.556953879 -s 18 -d -1 -p AODV -e 110 -c 2 -a 0 -i 0 -k MAC 
- -t 2.556953879 -s 18 -d -1 -p AODV -e 110 -c 2 -a 0 -i 0 -k MAC
h -t 2.556953879 -s 18 -d -1 -p AODV -e 110 -c 2 -a 0 -i 0 -k MAC
r -t 2.557834314 -s 9 -d -1 -p AODV -e 52 -c 2 -a 0 -i 0 -k MAC
r -t 2.557834646 -s 14 -d -1 -p AODV -e 52 -c 2 -a 0 -i 0 -k MAC
r -t 2.557834700 -s 17 -d -1 -p AODV -e 52 -c 2 -a 0 -i 0 -k MAC
r -t 2.557834820 -s 11 -d -1 -p AODV -e 52 -c 2 -a 0 -i 0 -k MAC
r -t 2.557834894 -s 10 -d -1 -p AODV -e 52 -c 2 -a 0 -i 0 -k MAC
r -t 2.557835025 -s 4 -d -1 -p AODV -e 52 -c 2 -a 0 -i 0 -k MAC
r -t 2.557835037 -s 0 -d -1 -p AODV -e 52 -c 2 -a 0 -i 0 -k MAC
r -t 2.557835131 -s 1 -d -1 -p AODV -e 52 -c 2 -a 0 -i 0 -k MAC
r -t 2.557835134 -s 15 -d -1 -p AODV -e 52 -c 2 -a 0 -i 0 -k MAC
r -t 2.557835180 -s 8 -d -1 -p AODV -e 52 -c 2 -a 0 -i 0 -k MAC
r -t 2.557835199 -s 3 -d -1 -p AODV -e 52 -c 2 -a 0 -i 0 -k MAC
r -t 2.557859314 -s 9 -d -1 -p AODV -e 52 -c 2 -a 0 -i 0 -k RTR
r -t 2.557859646 -s 14 -d -1 -p AODV -e 52 -c 2 -a 0 -i 0 -k RTR
r -t 2.557859700 -s 17 -d -1 -p AODV -e 52 -c 2 -a 0 -i 0 -k RTR
r -t 2.557859820 -s 11 -d -1 -p AODV -e 52 -c 2 -a 0 -i 0 -k RTR
r -t 2.557859894 -s 10 -d -1 -p AODV -e 52 -c 2 -a 0 -i 0 -k RTR
r -t 2.557860025 -s 4 -d -1 -p AODV -e 52 -c 2 -a 0 -i 0 -k RTR
r -t 2.557860037 -s 0 -d -1 -p AODV -e 52 -c 2 -a 0 -i 0 -k RTR
r -t 2.557860131 -s 1 -d -1 -p AODV -e 52 -c 2 -a 0 -i 0 -k RTR
r -t 2.557860134 -s 15 -d -1 -p AODV -e 52 -c 2 -a 0 -i 0 -k RTR
r -t 2.557860180 -s 8 -d -1 -p AODV -e 52 -c 2 -a 0 -i 0 -k RTR
r -t 2.557860199 -s 3 -d -1 -p AODV -e 52 -c 2 -a 0 -i 0 -k RTR
+ -t 2.558288145 -s 3 -d -1 -p AODV -e 52 -c 2 -a 0 -i 0 -k RTR 
- -t 2.558288145 -s 3 -d -1 -p AODV -e 52 -c 2 -a 0 -i 0 -k RTR
h -t 2.558288145 -s 3 -d -1 -p AODV -e 52 -c 2 -a 0 -i 0 -k RTR
+ -t 2.558523145 -s 3 -d -1 -p AODV -e 110 -c 2 -a 0 -i 0 -k MAC 
- -t 2.558523145 -s 3 -d -1 -p AODV -e 110 -c 2 -a 0 -i 0 -k MAC
h -t 2.558523145 -s 3 -d -1 -p AODV -e 110 -c 2 -a 0 -i 0 -k MAC
+ -t 2.558740540 -s 9 -d -1 -p AODV -e 52 -c 2 -a 0 -i 0 -k RTR 
- -t 2.558740540 -s 9 -d -1 -p AODV -e 52 -c 2 -a 0 -i 0 -k RTR
h -t 2.558740540 -s 9 -d -1 -p AODV -e 52 -c 2 -a 0 -i 0 -k RTR
r -t 2.559403362 -s 15 -d -1 -p AODV -e 52 -c 2 -a 0 -i 0 -k MAC
r -t 2.559403375 -s 4 -d -1 -p AODV -e 52 -c 2 -a 0 -i 0 -k MAC
r -t 2.559403419 -s 1 -d -1 -p AODV -e 52 -c 2 -a 0 -i 0 -k MAC
r -t 2.559403649 -s 0 -d -1 -p AODV -e 52 -c 2 -a 0 -i 0 -k MAC
r -t 2.559403694 -s 13 -d -1 -p AODV -e 52 -c 2 -a 0 -i 0 -k MAC
r -t 2.559403725 -s 14 -d -1 -p AODV -e 52 -c 2 -a 0 -i 0 -k MAC
r -t 2.559403786 -s 2 -d -1 -p AODV -e 52 -c 2 -a 0 -i 0 -k MAC
r -t 2.559404049 -s 16 -d -1 -p AODV -e 52 -c 2 -a 0 -i 0 -k MAC
r -t 2.559404053 -s 10 -d -1 -p AODV -e 52 -c 2 -a 0 -i 0 -k MAC
r -t 2.559404065 -s 11 -d -1 -p AODV -e 52 -c 2 -a 0 -i 0 -k MAC
r -t 2.559404067 -s 6 -d -1 -p AODV -e 52 -c 2 -a 0 -i 0 -k MAC
r -t 2.559404166 -s 7 -d -1 -p AODV -e 52 -c 2 -a 0 -i 0 -k MAC
r -t 2.559404177 -s 17 -d -1 -p AODV -e 52 -c 2 -a 0 -i 0 -k MAC
r -t 2.559404213 -s 5 -d -1 -p AODV -e 52 -c 2 -a 0 -i 0 -k MAC
r -t 2.559404296 -s 9 -d -1 -p AODV -e 52 -c 2 -a 0 -i 0 -k MAC
r -t 2.559404331 -s 8 -d -1 -p AODV -e 52 -c 2 -a 0 -i 0 -k MAC
r -t 2.559404414 -s 12 -d -1 -p AODV -e 52 -c 2 -a 0 -i 0 -k MAC
r -t 2.559404465 -s 18 -d -1 -p AODV -e 52 -c 2 -a 0 -i 0 -k MAC
r -t 2.559428362 -s 15 -d -1 -p AODV -e 52 -c 2 -a 0 -i 0 -k RTR
r -t 2.559428375 -s 4 -d -1 -p AODV -e 52 -c 2 -a 0 -i 0 -k RTR
r -t 2.559428419 -s 1 -d -1 -p AODV -e 52 -c 2 -a 0 -i 0 -k RTR
r -t 2.559428649 -s 0 -d -1 -p AODV -e 52 -c 2 -a 0 -i 0 -k RTR
r -t 2.559428694 -s 13 -d -1 -p AODV -e 52 -c 2 -a 0 -i 0 -k RTR
r -t 2.559428725 -s 14 -d -1 -p AODV -e 52 -c 2 -a 0 -i 0 -k RTR
r -t 2.559428786 -s 2 -d -1 -p AODV -e 52 -c 2 -a 0 -i 0 -k RTR
r -t 2.559429049 -s 16 -d -1 -p AODV -e 52 -c 2 -a 0 -i 0 -k RTR
r -t 2.559429053 -s 10 -d -1 -p AODV -e 52 -c 2 -a 0 -i 0 -k RTR
r -t 2.559429065 -s 11 -d -1 -p AODV -e 52 -c 2 -a 0 -i 0 -k RTR
r -t 2.559429067 -s 6 -d -1 -p AODV -e 52 -c 2 -a 0 -i 0 -k RTR
r -t 2.559429166 -s 7 -d -1 -p AODV -e 52 -c 2 -a 0 -i 0 -k RTR
r -t 2.559429177 -s 17 -d -1 -p AODV -e 52 -c 2 -a 0 -i 0 -k RTR
r -t 2.559429213 -s 5 -d -1 -p AODV -e 52 -c 2 -a 0 -i 0 -k RTR
r -t 2.559429296 -s 9 -d -1 -p AODV -e 52 -c 2 -a 0 -i 0 -k RTR
r -t 2.559429331 -s 8 -d -1 -p AODV -e 52 -c 2 -a 0 -i 0 -k RTR
r -t 2.559429414 -s 12 -d -1 -p AODV -e 52 -c 2 -a 0 -i 0 -k RTR
r -t 2.559429465 -s 18 -d -1 -p AODV -e 52 -c 2 -a 0 -i 0 -k RTR
+ -t 2.559501634 -s 8 -d -1 -p AODV -e 52 -c 2 -a 0 -i 0 -k RTR 
- -t 2.559501634 -s 8 -d -1 -p AODV -e 52 -c 2 -a 0 -i 0 -k RTR
h -t 2.559501634 -s 8 -d -1 -p AODV -e 52 -c 2 -a 0 -i 0 -k RTR
+ -t 2.559814296 -s 9 -d -1 -p AODV -e 110 -c 2 -a 0 -i 0 -k MAC 
- -t 2.559814296 -s 9 -d -1 -p AODV -e 110 -c 2 -a 0 -i 0 -k MAC
h -t 2.559814296 -s 9 -d -1 -p AODV -e 110 -c 2 -a 0 -i 0 -k MAC
+ -t 2.560206042 -s 4 -d -1 -p AODV -e 52 -c 2 -a 0 -i 0 -k RTR 
- -t 2.560206042 -s 4 -d -1 -p AODV -e 52 -c 2 -a 0 -i 0 -k RTR
h -t 2.560206042 -s 4 -d -1 -p AODV -e 52 -c 2 -a 0 -i 0 -k RTR
+ -t 2.560370438 -s 16 -d -1 -p AODV -e 52 -c 2 -a 0 -i 0 -k RTR 
- -t 2.560370438 -s 16 -d -1 -p AODV -e 52 -c 2 -a 0 -i 0 -k RTR
h -t 2.560370438 -s 16 -d -1 -p AODV -e 52 -c 2 -a 0 -i 0 -k RTR
+ -t 2.560625438 -s 16 -d -1 -p AODV -e 110 -c 2 -a 0 -i 0 -k MAC 
- -t 2.560625438 -s 16 -d -1 -p AODV -e 110 -c 2 -a 0 -i 0 -k MAC
h -t 2.560625438 -s 16 -d -1 -p AODV -e 110 -c 2 -a 0 -i 0 -k MAC
d -t 2.560625857 -s 6 -d -1 -p AODV -e 110 -c 2 -a 0 -i 0 -k MAC
d -t 2.560625954 -s 13 -d -1 -p AODV -e 110 -c 2 -a 0 -i 0 -k MAC
d -t 2.560626168 -s 0 -d -1 -p AODV -e 110 -c 2 -a 0 -i 0 -k MAC
d -t 2.560626172 -s 1 -d -1 -p AODV -e 110 -c 2 -a 0 -i 0 -k MAC
d -t 2.560626185 -s 5 -d -1 -p AODV -e 110 -c 2 -a 0 -i 0 -k MAC
d -t 2.560626202 -s 12 -d -1 -p AODV -e 110 -c 2 -a 0 -i 0 -k MAC
d -t 2.560626319 -s 4 -d -1 -p AODV -e 110 -c 2 -a 0 -i 0 -k MAC
d -t 2.560626343 -s 3 -d -1 -p AODV -e 110 -c 2 -a 0 -i 0 -k MAC
d -t 2.560626389 -s 8 -d -1 -p AODV -e 110 -c 2 -a 0 -i 0 -k MAC
d -t 2.560626401 -s 10 -d -1 -p AODV -e 110 -c 2 -a 0 -i 0 -k MAC
d -t 2.560626560 -s 15 -d -1 -p AODV -e 110 -c 2 -a 0 -i 0 -k MAC
r -t 2.560694689 -s 17 -d -1 -p AODV -e 52 -c 2 -a 0 -i 0 -k MAC
r -t 2.560694731 -s 18 -d -1 -p AODV -e 52 -c 2 -a 0 -i 0 -k MAC
r -t 2.560694825 -s 11 -d -1 -p AODV -e 52 -c 2 -a 0 -i 0 -k MAC
r -t 2.560695023 -s 14 -d -1 -p AODV -e 52 -c 2 -a 0 -i 0 -k MAC
r -t 2.560719689 -s 17 -d -1 -p AODV -e 52 -c 2 -a 0 -i 0 -k RTR
r -t 2.560719731 -s 18 -d -1 -p AODV -e 52 -c 2 -a 0 -i 0 -k RTR
r -t 2.560719825 -s 11 -d -1 -p AODV -e 52 -c 2 -a 0 -i 0 -k RTR
r -t 2.560720023 -s 14 -d -1 -p AODV -e 52 -c 2 -a 0 -i 0 -k RTR
+ -t 2.560950922 -s 1 -d -1 -p AODV -e 52 -c 2 -a 0 -i 0 -k RTR 
- -t 2.560950922 -s 1 -d -1 -p AODV -e 52 -c 2 -a 0 -i 0 -k RTR
h -t 2.560950922 -s 1 -d -1 -p AODV -e 52 -c 2 -a 0 -i 0 -k RTR
+ -t 2.560989437 -s 11 -d -1 -p AODV -e 52 -c 2 -a 0 -i 0 -k RTR 
- -t 2.560989437 -s 11 -d -1 -p AODV -e 52 -c 2 -a 0 -i 0 -k RTR
h -t 2.560989437 -s 11 -d -1 -p AODV -e 52 -c 2 -a 0 -i 0 -k RTR
+ -t 2.561176838 -s 2 -d -1 -p AODV -e 52 -c 2 -a 0 -i 0 -k RTR 
- -t 2.561176838 -s 2 -d -1 -p AODV -e 52 -c 2 -a 0 -i 0 -k RTR
h -t 2.561176838 -s 2 -d -1 -p AODV -e 52 -c 2 -a 0 -i 0 -k RTR
r -t 2.561505556 -s 7 -d -1 -p AODV -e 52 -c 2 -a 0 -i 0 -k MAC
r -t 2.561505803 -s 2 -d -1 -p AODV -e 52 -c 2 -a 0 -i 0 -k MAC
d -t 2.561505857 -s 6 -d -1 -p AODV -e 110 -c 2 -a 0 -i 0 -k MAC
r -t 2.561505930 -s 19 -d -1 -p AODV -e 52 -c 2 -a 0 -i 0 -k MAC
d -t 2.561505954 -s 13 -d -1 -p AODV -e 110 -c 2 -a 0 -i 0 -k MAC
d -t 2.561506168 -s 0 -d -1 -p AODV -e 110 -c 2 -a 0 -i 0 -k MAC
d -t 2.561506172 -s 1 -d -1 -p AODV -e 110 -c 2 -a 0 -i 0 -k MAC
d -t 2.561506185 -s 5 -d -1 -p AODV -e 110 -c 2 -a 0 -i 0 -k MAC
d -t 2.561506202 -s 12 -d -1 -p AODV -e 110 -c 2 -a 0 -i 0 -k MAC
d -t 2.561506319 -s 4 -d -1 -p AODV -e 110 -c 2 -a 0 -i 0 -k MAC
d -t 2.561506343 -s 3 -d -1 -p AODV -e 110 -c 2 -a 0 -i 0 -k MAC
d -t 2.561506389 -s 8 -d -1 -p AODV -e 110 -c 2 -a 0 -i 0 -k MAC
d -t 2.561506401 -s 10 -d -1 -p AODV -e 110 -c 2 -a 0 -i 0 -k MAC
d -t 2.561506560 -s 15 -d -1 -p AODV -e 110 -c 2 -a 0 -i 0 -k MAC
r -t 2.561530556 -s 7 -d -1 -p AODV -e 52 -c 2 -a 0 -i 0 -k RTR
r -t 2.561530803 -s 2 -d -1 -p AODV -e 52 -c 2 -a 0 -i 0 -k RTR
r -t 2.561530930 -s 19 -d -1 -p AODV -e 52 -c 2 -a 0 -i 0 -k RTR
+ -t 2.561530930 -s 19 -d 16 -p AODV -e 44 -c 2 -a 0 -i 0 -k RTR 
- -t 2.561530930 -s 19 -d 16 -p AODV -e 44 -c 2 -a 0 -i 0 -k RTR
h -t 2.561530930 -s 19 -d 16 -p AODV -e 44 -c 2 -a 0 -i 0 -k RTR
+ -t 2.561885930 -s 19 -d -1 -p ARP -e 86 -c 2 -a 0 -i 0 -k MAC 
- -t 2.561885930 -s 19 -d -1 -p ARP -e 86 -c 2 -a 0 -i 0 -k MAC
h -t 2.561885930 -s 19 -d -1 -p ARP -e 86 -c 2 -a 0 -i 0 -k MAC
+ -t 2.562010093 -s 5 -d -1 -p AODV -e 52 -c 2 -a 0 -i 0 -k RTR 
- -t 2.562010093 -s 5 -d -1 -p AODV -e 52 -c 2 -a 0 -i 0 -k RTR
h -t 2.562010093 -s 5 -d -1 -p AODV -e 52 -c 2 -a 0 -i 0 -k RTR
+ -t 2.562271380 -s 14 -d -1 -p AODV -e 52 -c 2 -a 0 -i 0 -k RTR 
- -t 2.562271380 -s 14 -d -1 -p AODV -e 52 -c 2 -a 0 -i 0 -k RTR
h -t 2.562271380 -s 14 -d -1 -p AODV -e 52 -c 2 -a 0 -i 0 -k RTR
+ -t 2.562360319 -s 4 -d -1 -p AODV -e 110 -c 2 -a 0 -i 0 -k MAC 
- -t 2.562360319 -s 4 -d -1 -p AODV -e 110 -c 2 -a 0 -i 0 -k MAC
h -t 2.562360319 -s 4 -d -1 -p AODV -e 110 -c 2 -a 0 -i 0 -k MAC
d -t 2.562360466 -s 1 -d -1 -p ARP -e 86 -c 2 -a 0 -i 0 -k MAC
d -t 2.562360624 -s 0 -d -1 -p ARP -e 86 -c 2 -a 0 -i 0 -k MAC
d -t 2.562360742 -s 13 -d -1 -p ARP -e 86 -c 2 -a 0 -i 0 -k MAC
d -t 2.562361022 -s 2 -d -1 -p ARP -e 86 -c 2 -a 0 -i 0 -k MAC
d -t 2.562361113 -s 6 -d -1 -p ARP -e 86 -c 2 -a 0 -i 0 -k MAC
d -t 2.562361203 -s 5 -d -1 -p ARP -e 86 -c 2 -a 0 -i 0 -k MAC
d -t 2.562361300 -s 8 -d -1 -p ARP -e 86 -c 2 -a 0 -i 0 -k MAC
d -t 2.562361422 -s 12 -d -1 -p ARP -e 86 -c 2 -a 0 -i 0 -k MAC
r -t 2.562574309 -s 7 -d -1 -p ARP -e 28 -c 2 -a 0 -i 0 -k MAC
r -t 2.562574423 -s 16 -d -1 -p ARP -e 28 -c 2 -a 0 -i 0 -k MAC
+ -t 2.562916576 -s 7 -d -1 -p AODV -e 52 -c 2 -a 0 -i 0 -k RTR 
- -t 2.562916576 -s 7 -d -1 -p AODV -e 52 -c 2 -a 0 -i 0 -k RTR
h -t 2.562916576 -s 7 -d -1 -p AODV -e 52 -c 2 -a 0 -i 0 -k RTR
d -t 2.563240466 -s 1 -d -1 -p AODV -e 110 -c 2 -a 0 -i 0 -k MAC
r -t 2.563240550 -s 3 -d -1 -p AODV -e 52 -c 2 -a 0 -i 0 -k MAC
d -t 2.563240624 -s 0 -d -1 -p AODV -e 110 -c 2 -a 0 -i 0 -k MAC
r -t 2.563240676 -s 15 -d -1 -p AODV -e 52 -c 2 -a 0 -i 0 -k MAC
d -t 2.563240742 -s 13 -d -1 -p AODV -e 110 -c 2 -a 0 -i 0 -k MAC
r -t 2.563240790 -s 14 -d -1 -p AODV -e 52 -c 2 -a 0 -i 0 -k MAC
r -t 2.563241004 -s 10 -d -1 -p AODV -e 52 -c 2 -a 0 -i 0 -k MAC
r -t 2.563241011 -s 11 -d -1 -p AODV -e 52 -c 2 -a 0 -i 0 -k MAC
d -t 2.563241022 -s 2 -d -1 -p AODV -e 110 -c 2 -a 0 -i 0 -k MAC
d -t 2.563241113 -s 6 -d -1 -p AODV -e 110 -c 2 -a 0 -i 0 -k MAC
r -t 2.563241120 -s 17 -d -1 -p AODV -e 52 -c 2 -a 0 -i 0 -k MAC
d -t 2.563241203 -s 5 -d -1 -p AODV -e 110 -c 2 -a 0 -i 0 -k MAC
r -t 2.563241255 -s 9 -d -1 -p AODV -e 52 -c 2 -a 0 -i 0 -k MAC
d -t 2.563241300 -s 8 -d -1 -p AODV -e 110 -c 2 -a 0 -i 0 -k MAC
d -t 2.563241422 -s 12 -d -1 -p AODV -e 110 -c 2 -a 0 -i 0 -k MAC
r -t 2.563241465 -s 18 -d -1 -p AODV -e 52 -c 2 -a 0 -i 0 -k MAC
r -t 2.563265550 -s 3 -d -1 -p AODV -e 52 -c 2 -a 0 -i 0 -k RTR
r -t 2.563265676 -s 15 -d -1 -p AODV -e 52 -c 2 -a 0 -i 0 -k RTR
r -t 2.563265790 -s 14 -d -1 -p AODV -e 52 -c 2 -a 0 -i 0 -k RTR
r -t 2.563266004 -s 10 -d -1 -p AODV -e 52 -c 2 -a 0 -i 0 -k RTR
r -t 2.563266011 -s 11 -d -1 -p AODV -e 52 -c 2 -a 0 -i 0 -k RTR
r -t 2.563266120 -s 17 -d -1 -p AODV -e 52 -c 2 -a 0 -i 0 -k RTR
r -t 2.563266255 -s 9 -d -1 -p AODV -e 52 -c 2 -a 0 -i 0 -k RTR
r -t 2.563266465 -s 18 -d -1 -p AODV -e 52 -c 2 -a 0 -i 0 -k RTR
+ -t 2.563391011 -s 11 -d -1 -p AODV -e 110 -c 2 -a 0 -i 0 -k MAC 
- -t 2.563391011 -s 11 -d -1 -p AODV -e 110 -c 2 -a 0 -i 0 -k MAC
h -t 2.563391011 -s 11 -d -1 -p AODV -e 110 -c 2 -a 0 -i 0 -k MAC
+ -t 2.563516271 -s 12 -d -1 -p AODV -e 52 -c 2 -a 0 -i 0 -k RTR 
- -t 2.563516271 -s 12 -d -1 -p AODV -e 52 -c 2 -a 0 -i 0 -k RTR
h -t 2.563516271 -s 12 -d -1 -p AODV -e 52 -c 2 -a 0 -i 0 -k RTR
+ -t 2.563665262 -s 13 -d -1 -p AODV -e 52 -c 2 -a 0 -i 0 -k RTR 
- -t 2.563665262 -s 13 -d -1 -p AODV -e 52 -c 2 -a 0 -i 0 -k RTR
h -t 2.563665262 -s 13 -d -1 -p AODV -e 52 -c 2 -a 0 -i 0 -k RTR
+ -t 2.564248689 -s 0 -d -1 -p AODV -e 52 -c 2 -a 0 -i 0 -k RTR 
- -t 2.564248689 -s 0 -d -1 -p AODV -e 52 -c 2 -a 0 -i 0 -k RTR
h -t 2.564248689 -s 0 -d -1 -p AODV -e 52 -c 2 -a 0 -i 0 -k RTR
r -t 2.564271087 -s 10 -d -1 -p AODV -e 52 -c 2 -a 0 -i 0 -k MAC
r -t 2.564271173 -s 17 -d -1 -p AODV -e 52 -c 2 -a 0 -i 0 -k MAC
r -t 2.564271417 -s 8 -d -1 -p AODV -e 52 -c 2 -a 0 -i 0 -k MAC
r -t 2.564271464 -s 0 -d -1 -p AODV -e 52 -c 2 -a 0 -i 0 -k MAC
r -t 2.564271472 -s 5 -d -1 -p AODV -e 52 -c 2 -a 0 -i 0 -k MAC
r -t 2.564271540 -s 9 -d -1 -p AODV -e 52 -c 2 -a 0 -i 0 -k MAC
r -t 2.564271605 -s 13 -d -1 -p AODV -e 52 -c 2 -a 0 -i 0 -k MAC
r -t 2.564271677 -s 6 -d -1 -p AODV -e 52 -c 2 -a 0 -i 0 -k MAC
r -t 2.564271691 -s 1 -d -1 -p AODV -e 52 -c 2 -a 0 -i 0 -k MAC
r -t 2.564271703 -s 4 -d -1 -p AODV -e 52 -c 2 -a 0 -i 0 -k MAC
r -t 2.564271708 -s 12 -d -1 -p AODV -e 52 -c 2 -a 0 -i 0 -k MAC
r -t 2.564271804 -s 14 -d -1 -p AODV -e 52 -c 2 -a 0 -i 0 -k MAC
r -t 2.564271931 -s 3 -d -1 -p AODV -e 52 -c 2 -a 0 -i 0 -k MAC
r -t 2.564271952 -s 18 -d -1 -p AODV -e 52 -c 2 -a 0 -i 0 -k MAC
r -t 2.564272037 -s 15 -d -1 -p AODV -e 52 -c 2 -a 0 -i 0 -k MAC
r -t 2.564272043 -s 16 -d -1 -p AODV -e 52 -c 2 -a 0 -i 0 -k MAC
r -t 2.564272114 -s 2 -d -1 -p AODV -e 52 -c 2 -a 0 -i 0 -k MAC
r -t 2.564272128 -s 7 -d -1 -p AODV -e 52 -c 2 -a 0 -i 0 -k MAC
r -t 2.564296087 -s 10 -d -1 -p AODV -e 52 -c 2 -a 0 -i 0 -k RTR
r -t 2.564296173 -s 17 -d -1 -p AODV -e 52 -c 2 -a 0 -i 0 -k RTR
r -t 2.564296417 -s 8 -d -1 -p AODV -e 52 -c 2 -a 0 -i 0 -k RTR
r -t 2.564296464 -s 0 -d -1 -p AODV -e 52 -c 2 -a 0 -i 0 -k RTR
r -t 2.564296472 -s 5 -d -1 -p AODV -e 52 -c 2 -a 0 -i 0 -k RTR
r -t 2.564296540 -s 9 -d -1 -p AODV -e 52 -c 2 -a 0 -i 0 -k RTR
r -t 2.564296605 -s 13 -d -1 -p AODV -e 52 -c 2 -a 0 -i 0 -k RTR
r -t 2.564296677 -s 6 -d -1 -p AODV -e 52 -c 2 -a 0 -i 0 -k RTR
r -t 2.564296691 -s 1 -d -1 -p AODV -e 52 -c 2 -a 0 -i 0 -k RTR
r -t 2.564296703 -s 4 -d -1 -p AODV -e 52 -c 2 -a 0 -i 0 -k RTR
r -t 2.564296708 -s 12 -d -1 -p AODV -e 52 -c 2 -a 0 -i 0 -k RTR
r -t 2.564296804 -s 14 -d -1 -p AODV -e 52 -c 2 -a 0 -i 0 -k RTR
r -t 2.564296931 -s 3 -d -1 -p AODV -e 52 -c 2 -a 0 -i 0 -k RTR
r -t 2.564296952 -s 18 -d -1 -p AODV -e 52 -c 2 -a 0 -i 0 -k RTR
r -t 2.564297037 -s 15 -d -1 -p AODV -e 52 -c 2 -a 0 -i 0 -k RTR
r -t 2.564297043 -s 16 -d -1 -p AODV -e 52 -c 2 -a 0 -i 0 -k RTR
r -t 2.564297114 -s 2 -d -1 -p AODV -e 52 -c 2 -a 0 -i 0 -k RTR
r -t 2.564297128 -s 7 -d -1 -p AODV -e 52 -c 2 -a 0 -i 0 -k RTR
+ -t 2.564341417 -s 8 -d -1 -p AODV -e 110 -c 2 -a 0 -i 0 -k MAC 
- -t 2.564341417 -s 8 -d -1 -p AODV -e 110 -c 2 -a 0 -i 0 -k MAC
h -t 2.564341417 -s 8 -d -1 -p AODV -e 110 -c 2 -a 0 -i 0 -k MAC
r -t 2.565221622 -s 5 -d -1 -p AODV -e 52 -c 2 -a 0 -i 0 -k MAC
r -t 2.565221758 -s 12 -d -1 -p AODV -e 52 -c 2 -a 0 -i 0 -k MAC
r -t 2.565221772 -s 10 -d -1 -p AODV -e 52 -c 2 -a 0 -i 0 -k MAC
r -t 2.565221823 -s 11 -d -1 -p AODV -e 52 -c 2 -a 0 -i 0 -k MAC
r -t 2.565221899 -s 17 -d -1 -p AODV -e 52 -c 2 -a 0 -i 0 -k MAC
r -t 2.565221949 -s 6 -d -1 -p AODV -e 52 -c 2 -a 0 -i 0 -k MAC
r -t 2.565222100 -s 0 -d -1 -p AODV -e 52 -c 2 -a 0 -i 0 -k MAC
r -t 2.565222120 -s 13 -d -1 -p AODV -e 52 -c 2 -a 0 -i 0 -k MAC
r -t 2.565222287 -s 9 -d -1 -p AODV -e 52 -c 2 -a 0 -i 0 -k MAC
r -t 2.565222332 -s 1 -d -1 -p AODV -e 52 -c 2 -a 0 -i 0 -k MAC
r -t 2.565222368 -s 16 -d -1 -p AODV -e 52 -c 2 -a 0 -i 0 -k MAC
r -t 2.565222398 -s 4 -d -1 -p AODV -e 52 -c 2 -a 0 -i 0 -k MAC
r -t 2.565222416 -s 7 -d -1 -p AODV -e 52 -c 2 -a 0 -i 0 -k MAC
r -t 2.565222568 -s 2 -d -1 -p AODV -e 52 -c 2 -a 0 -i 0 -k MAC
r -t 2.565222601 -s 14 -d -1 -p AODV -e 52 -c 2 -a 0 -i 0 -k MAC
r -t 2.565222603 -s 3 -d -1 -p AODV -e 52 -c 2 -a 0 -i 0 -k MAC
r -t 2.565222702 -s 19 -d -1 -p AODV -e 52 -c 2 -a 0 -i 0 -k MAC
r -t 2.565222719 -s 18 -d -1 -p AODV -e 52 -c 2 -a 0 -i 0 -k MAC
r -t 2.565246622 -s 5 -d -1 -p AODV -e 52 -c 2 -a 0 -i 0 -k RTR
r -t 2.565246758 -s 12 -d -1 -p AODV -e 52 -c 2 -a 0 -i 0 -k RTR
r -t 2.565246772 -s 10 -d -1 -p AODV -e 52 -c 2 -a 0 -i 0 -k RTR
r -t 2.565246823 -s 11 -d -1 -p AODV -e 52 -c 2 -a 0 -i 0 -k RTR
r -t 2.565246899 -s 17 -d -1 -p AODV -e 52 -c 2 -a 0 -i 0 -k RTR
r -t 2.565246949 -s 6 -d -1 -p AODV -e 52 -c 2 -a 0 -i 0 -k RTR
r -t 2.565247100 -s 0 -d -1 -p AODV -e 52 -c 2 -a 0 -i 0 -k RTR
r -t 2.565247120 -s 13 -d -1 -p AODV -e 52 -c 2 -a 0 -i 0 -k RTR
r -t 2.565247287 -s 9 -d -1 -p AODV -e 52 -c 2 -a 0 -i 0 -k RTR
r -t 2.565247332 -s 1 -d -1 -p AODV -e 52 -c 2 -a 0 -i 0 -k RTR
r -t 2.565247368 -s 16 -d -1 -p AODV -e 52 -c 2 -a 0 -i 0 -k RTR
r -t 2.565247398 -s 4 -d -1 -p AODV -e 52 -c 2 -a 0 -i 0 -k RTR
r -t 2.565247416 -s 7 -d -1 -p AODV -e 52 -c 2 -a 0 -i 0 -k RTR
r -t 2.565247568 -s 2 -d -1 -p AODV -e 52 -c 2 -a 0 -i 0 -k RTR
r -t 2.565247601 -s 14 -d -1 -p AODV -e 52 -c 2 -a 0 -i 0 -k RTR
r -t 2.565247603 -s 3 -d -1 -p AODV -e 52 -c 2 -a 0 -i 0 -k RTR
r -t 2.565247702 -s 19 -d -1 -p AODV -e 52 -c 2 -a 0 -i 0 -k RTR
+ -t 2.565247702 -s 19 -d 8 -p AODV -e 44 -c 2 -a 0 -i 0 -k RTR 
- -t 2.565247702 -s 19 -d 8 -p AODV -e 44 -c 2 -a 0 -i 0 -k RTR
h -t 2.565247702 -s 19 -d 8 -p AODV -e 44 -c 2 -a 0 -i 0 -k RTR
r -t 2.565247719 -s 18 -d -1 -p AODV -e 52 -c 2 -a 0 -i 0 -k RTR
+ -t 2.565292568 -s 2 -d -1 -p AODV -e 110 -c 2 -a 0 -i 0 -k MAC 
- -t 2.565292568 -s 2 -d -1 -p AODV -e 110 -c 2 -a 0 -i 0 -k MAC
h -t 2.565292568 -s 2 -d -1 -p AODV -e 110 -c 2 -a 0 -i 0 -k MAC
+ -t 2.565292601 -s 14 -d -1 -p AODV -e 110 -c 2 -a 0 -i 0 -k MAC 
- -t 2.565292601 -s 14 -d -1 -p AODV -e 110 -c 2 -a 0 -i 0 -k MAC
h -t 2.565292601 -s 14 -d -1 -p AODV -e 110 -c 2 -a 0 -i 0 -k MAC
d -t 2.565293209 -s 3 -d -1 -p AODV -e 110 -c 2 -a 0 -i 0 -k MAC
d -t 2.565293214 -s 1 -d -1 -p AODV -e 110 -c 2 -a 0 -i 0 -k MAC
d -t 2.565293257 -s 0 -d -1 -p AODV -e 110 -c 2 -a 0 -i 0 -k MAC
d -t 2.565293271 -s 4 -d -1 -p AODV -e 110 -c 2 -a 0 -i 0 -k MAC
d -t 2.565293415 -s 15 -d -1 -p AODV -e 110 -c 2 -a 0 -i 0 -k MAC
d -t 2.565293448 -s 13 -d -1 -p AODV -e 110 -c 2 -a 0 -i 0 -k MAC
d -t 2.565293617 -s 10 -d -1 -p AODV -e 110 -c 2 -a 0 -i 0 -k MAC
d -t 2.565293671 -s 11 -d -1 -p AODV -e 110 -c 2 -a 0 -i 0 -k MAC
d -t 2.565293765 -s 5 -d -1 -p AODV -e 110 -c 2 -a 0 -i 0 -k MAC
d -t 2.565293786 -s 8 -d -1 -p AODV -e 110 -c 2 -a 0 -i 0 -k MAC
d -t 2.565293828 -s 17 -d -1 -p AODV -e 110 -c 2 -a 0 -i 0 -k MAC
+ -t 2.565851254 -s 17 -d -1 -p AODV -e 52 -c 2 -a 0 -i 0 -k RTR 
- -t 2.565851254 -s 17 -d -1 -p AODV -e 52 -c 2 -a 0 -i 0 -k RTR
h -t 2.565851254 -s 17 -d -1 -p AODV -e 52 -c 2 -a 0 -i 0 -k RTR
+ -t 2.566024655 -s 10 -d -1 -p AODV -e 52 -c 2 -a 0 -i 0 -k RTR 
- -t 2.566024655 -s 10 -d -1 -p AODV -e 52 -c 2 -a 0 -i 0 -k RTR
h -t 2.566024655 -s 10 -d -1 -p AODV -e 52 -c 2 -a 0 -i 0 -k RTR
r -t 2.566172933 -s 16 -d -1 -p AODV -e 52 -c 2 -a 0 -i 0 -k MAC
r -t 2.566173023 -s 7 -d -1 -p AODV -e 52 -c 2 -a 0 -i 0 -k MAC
d -t 2.566173209 -s 3 -d -1 -p AODV -e 110 -c 2 -a 0 -i 0 -k MAC
d -t 2.566173214 -s 1 -d -1 -p AODV -e 110 -c 2 -a 0 -i 0 -k MAC
r -t 2.566173226 -s 6 -d -1 -p AODV -e 52 -c 2 -a 0 -i 0 -k MAC
d -t 2.566173257 -s 0 -d -1 -p AODV -e 110 -c 2 -a 0 -i 0 -k MAC
d -t 2.566173271 -s 4 -d -1 -p AODV -e 110 -c 2 -a 0 -i 0 -k MAC
r -t 2.566173324 -s 19 -d -1 -p AODV -e 52 -c 2 -a 0 -i 0 -k MAC
r -t 2.566173328 -s 9 -d -1 -p AODV -e 52 -c 2 -a 0 -i 0 -k MAC
r -t 2.566173368 -s 18 -d -1 -p AODV -e 52 -c 2 -a 0 -i 0 -k MAC
d -t 2.566173415 -s 15 -d -1 -p AODV -e 110 -c 2 -a 0 -i 0 -k MAC
d -t 2.566173448 -s 13 -d -1 -p AODV -e 110 -c 2 -a 0 -i 0 -k MAC
d -t 2.566173617 -s 10 -d -1 -p AODV -e 110 -c 2 -a 0 -i 0 -k MAC
r -t 2.566173618 -s 12 -d -1 -p AODV -e 52 -c 2 -a 0 -i 0 -k MAC
d -t 2.566173671 -s 11 -d -1 -p AODV -e 110 -c 2 -a 0 -i 0 -k MAC
d -t 2.566173765 -s 5 -d -1 -p AODV -e 110 -c 2 -a 0 -i 0 -k MAC
d -t 2.566173786 -s 8 -d -1 -p AODV -e 110 -c 2 -a 0 -i 0 -k MAC
d -t 2.566173828 -s 17 -d -1 -p AODV -e 110 -c 2 -a 0 -i 0 -k MAC
r -t 2.566197933 -s 16 -d -1 -p AODV -e 52 -c 2 -a 0 -i 0 -k RTR
r -t 2.566198023 -s 7 -d -1 -p AODV -e 52 -c 2 -a 0 -i 0 -k RTR
r -t 2.566198226 -s 6 -d -1 -p AODV -e 52 -c 2 -a 0 -i 0 -k RTR
r -t 2.566198324 -s 19 -d -1 -p AODV -e 52 -c 2 -a 0 -i 0 -k RTR
+ -t 2.566198324 -s 19 -d 8 -p AODV -e 44 -c 2 -a 0 -i 0 -k RTR 
- -t 2.566198324 -s 19 -d 8 -p AODV -e 44 -c 2 -a 0 -i 0 -k RTR
h -t 2.566198324 -s 19 -d 8 -p AODV -e 44 -c 2 -a 0 -i 0 -k RTR
d -t 2.566198324 -s 19 -d 8 -p AODV -e 44 -c 2 -a 0 -i 0 -k IFQ
r -t 2.566198328 -s 9 -d -1 -p AODV -e 52 -c 2 -a 0 -i 0 -k RTR
r -t 2.566198368 -s 18 -d -1 -p AODV -e 52 -c 2 -a 0 -i 0 -k RTR
r -t 2.566198618 -s 12 -d -1 -p AODV -e 52 -c 2 -a 0 -i 0 -k RTR
+ -t 2.566223369 -s 15 -d -1 -p AODV -e 52 -c 2 -a 0 -i 0 -k RTR 
- -t 2.566223369 -s 15 -d -1 -p AODV -e 52 -c 2 -a 0 -i 0 -k RTR
h -t 2.566223369 -s 15 -d -1 -p AODV -e 52 -c 2 -a 0 -i 0 -k RTR
+ -t 2.566343324 -s 19 -d -1 -p ARP -e 86 -c 2 -a 0 -i 0 -k MAC 
- -t 2.566343324 -s 19 -d -1 -p ARP -e 86 -c 2 -a 0 -i 0 -k MAC
h -t 2.566343324 -s 19 -d -1 -p ARP -e 86 -c 2 -a 0 -i 0 -k MAC
+ -t 2.566867415 -s 15 -d -1 -p AODV -e 110 -c 2 -a 0 -i 0 -k MAC 
- -t 2.566867415 -s 15 -d -1 -p AODV -e 110 -c 2 -a 0 -i 0 -k MAC
h -t 2.566867415 -s 15 -d -1 -p AODV -e 110 -c 2 -a 0 -i 0 -k MAC
d -t 2.566867875 -s 1 -d -1 -p ARP -e 86 -c 2 -a 0 -i 0 -k MAC
d -t 2.566868077 -s 0 -d -1 -p ARP -e 86 -c 2 -a 0 -i 0 -k MAC
d -t 2.566868163 -s 13 -d -1 -p ARP -e 86 -c 2 -a 0 -i 0 -k MAC
d -t 2.566868263 -s 2 -d -1 -p ARP -e 86 -c 2 -a 0 -i 0 -k MAC
d -t 2.566868538 -s 6 -d -1 -p ARP -e 86 -c 2 -a 0 -i 0 -k MAC
d -t 2.566868656 -s 5 -d -1 -p ARP -e 86 -c 2 -a 0 -i 0 -k MAC
r -t 2.567031703 -s 7 -d -1 -p ARP -e 28 -c 2 -a 0 -i 0 -k MAC
r -t 2.567031816 -s 16 -d -1 -p ARP -e 28 -c 2 -a 0 -i 0 -k MAC
r -t 2.567032324 -s 12 -d -1 -p ARP -e 28 -c 2 -a 0 -i 0 -k MAC
r -t 2.567032608 -s 8 -d -1 -p ARP -e 28 -c 2 -a 0 -i 0 -k MAC
+ -t 2.567122608 -s 8 -d -1 -p RTS -e 44 -c 2 -a 0 -i 0 -k MAC 
- -t 2.567122608 -s 8 -d -1 -p RTS -e 44 -c 2 -a 0 -i 0 -k MAC
h -t 2.567122608 -s 8 -d -1 -p RTS -e 44 -c 2 -a 0 -i 0 -k MAC
r -t 2.567475893 -s 19 -d -1 -p RTS -e 44 -c 2 -a 0 -i 0 -k MAC
+ -t 2.567485893 -s 19 -d -1 -p CTS -e 38 -c 2 -a 0 -i 0 -k MAC 
- -t 2.567485893 -s 19 -d -1 -p CTS -e 38 -c 2 -a 0 -i 0 -k MAC
h -t 2.567485893 -s 19 -d -1 -p CTS -e 38 -c 2 -a 0 -i 0 -k MAC
d -t 2.567486649 -s 2 -d -1 -p AODV -e 110 -c 2 -a 0 -i 0 -k MAC
d -t 2.567486695 -s 6 -d -1 -p AODV -e 110 -c 2 -a 0 -i 0 -k MAC
d -t 2.567486897 -s 13 -d -1 -p AODV -e 110 -c 2 -a 0 -i 0 -k MAC
d -t 2.567486983 -s 5 -d -1 -p AODV -e 110 -c 2 -a 0 -i 0 -k MAC
+ -t 2.567499352 -s 6 -d -1 -p AODV -e 52 -c 2 -a 0 -i 0 -k RTR 
- -t 2.567499352 -s 6 -d -1 -p AODV -e 52 -c 2 -a 0 -i 0 -k RTR
h -t 2.567499352 -s 6 -d -1 -p AODV -e 52 -c 2 -a 0 -i 0 -k RTR
r -t 2.567747633 -s 3 -d -1 -p AODV -e 52 -c 2 -a 0 -i 0 -k MAC
r -t 2.567747773 -s 4 -d -1 -p AODV -e 52 -c 2 -a 0 -i 0 -k MAC
d -t 2.567747875 -s 1 -d -1 -p AODV -e 110 -c 2 -a 0 -i 0 -k MAC
r -t 2.567747904 -s 14 -d -1 -p AODV -e 52 -c 2 -a 0 -i 0 -k MAC
d -t 2.567748077 -s 0 -d -1 -p AODV -e 110 -c 2 -a 0 -i 0 -k MAC
d -t 2.567748441 -s 11 -d -1 -p AODV -e 110 -c 2 -a 0 -i 0 -k MAC
d -t 2.567748444 -s 10 -d -1 -p AODV -e 110 -c 2 -a 0 -i 0 -k MAC
d -t 2.567748528 -s 17 -d -1 -p AODV -e 110 -c 2 -a 0 -i 0 -k MAC
d -t 2.567748574 -s 9 -d -1 -p AODV -e 110 -c 2 -a 0 -i 0 -k MAC
d -t 2.567748670 -s 18 -d -1 -p AODV -e 110 -c 2 -a 0 -i 0 -k MAC
r -t 2.567772633 -s 3 -d -1 -p AODV -e 52 -c 2 -a 0 -i 0 -k RTR
r -t 2.567772773 -s 4 -d -1 -p AODV -e 52 -c 2 -a 0 -i 0 -k RTR
r -t 2.567772904 -s 14 -d -1 -p AODV -e 52 -c 2 -a 0 -i 0 -k RTR
r -t 2.567791178 -s 8 -d -1 -p CTS -e 38 -c 2 -a 0 -i 0 -k MAC
+ -t 2.567801178 -s 8 -d -1 -p ARP -e 86 -c 2 -a 0 -i 0 -k MAC 
- -t 2.567801178 -s 8 -d -1 -p ARP -e 86 -c 2 -a 0 -i 0 -k MAC
h -t 2.567801178 -s 8 -d -1 -p ARP -e 86 -c 2 -a 0 -i 0 -k MAC
r -t 2.568490462 -s 19 -d -1 -p ARP -e 28 -c 2 -a 0 -i 0 -k MAC
+ -t 2.568500462 -s 19 -d -1 -p ACK -e 38 -c 2 -a 0 -i 0 -k MAC 
- -t 2.568500462 -s 19 -d -1 -p ACK -e 38 -c 2 -a 0 -i 0 -k MAC
h -t 2.568500462 -s 19 -d -1 -p ACK -e 38 -c 2 -a 0 -i 0 -k MAC
r -t 2.568805746 -s 8 -d -1 -p ACK -e 38 -c 2 -a 0 -i 0 -k MAC
+ -t 2.568855265 -s 6 -d -1 -p AODV -e 110 -c 2 -a 0 -i 0 -k MAC 
- -t 2.568855265 -s 6 -d -1 -p AODV -e 110 -c 2 -a 0 -i 0 -k MAC
h -t 2.568855265 -s 6 -d -1 -p AODV -e 110 -c 2 -a 0 -i 0 -k MAC
r -t 2.569735591 -s 5 -d -1 -p AODV -e 52 -c 2 -a 0 -i 0 -k MAC
r -t 2.569735639 -s 13 -d -1 -p AODV -e 52 -c 2 -a 0 -i 0 -k MAC
r -t 2.569735661 -s 12 -d -1 -p AODV -e 52 -c 2 -a 0 -i 0 -k MAC
r -t 2.569735684 -s 16 -d -1 -p AODV -e 52 -c 2 -a 0 -i 0 -k MAC
r -t 2.569735739 -s 7 -d -1 -p AODV -e 52 -c 2 -a 0 -i 0 -k MAC
r -t 2.569735790 -s 0 -d -1 -p AODV -e 52 -c 2 -a 0 -i 0 -k MAC
r -t 2.569735796 -s 8 -d -1 -p AODV -e 52 -c 2 -a 0 -i 0 -k MAC
r -t 2.569735855 -s 10 -d -1 -p AODV -e 52 -c 2 -a 0 -i 0 -k MAC
r -t 2.569735922 -s 2 -d -1 -p AODV -e 52 -c 2 -a 0 -i 0 -k MAC
r -t 2.569735929 -s 1 -d -1 -p AODV -e 52 -c 2 -a 0 -i 0 -k MAC
r -t 2.569735930 -s 11 -d -1 -p AODV -e 52 -c 2 -a 0 -i 0 -k MAC
r -t 2.569736057 -s 4 -d -1 -p AODV -e 52 -c 2 -a 0 -i 0 -k MAC
r -t 2.569736067 -s 19 -d -1 -p AODV -e 52 -c 2 -a 0 -i 0 -k MAC
r -t 2.569736084 -s 17 -d -1 -p AODV -e 52 -c 2 -a 0 -i 0 -k MAC
r -t 2.569736185 -s 3 -d -1 -p AODV -e 52 -c 2 -a 0 -i 0 -k MAC
r -t 2.569736387 -s 15 -d -1 -p AODV -e 52 -c 2 -a 0 -i 0 -k MAC
r -t 2.569736444 -s 14 -d -1 -p AODV -e 52 -c 2 -a 0 -i 0 -k MAC
r -t 2.569736455 -s 9 -d -1 -p AODV -e 52 -c 2 -a 0 -i 0 -k MAC
r -t 2.569760591 -s 5 -d -1 -p AODV -e 52 -c 2 -a 0 -i 0 -k RTR
r -t 2.569760639 -s 13 -d -1 -p AODV -e 52 -c 2 -a 0 -i 0 -k RTR
r -t 2.569760661 -s 12 -d -1 -p AODV -e 52 -c 2 -a 0 -i 0 -k RTR
r -t 2.569760684 -s 16 -d -1 -p AODV -e 52 -c 2 -a 0 -i 0 -k RTR