M 0.0 nn 20 x 500 y 500 rp AODV
M 0.0 sc setdest20.tcl cp cbr20.tcl seed 1.0
M 0.0 prop Propagation/TwoRayGround ant Antenna/OmniAntenna
M 0.00000 1 (420.50, 299.28, 0.00), (143.39, 403.60), 38.66
M 0.00000 2 (121.66, 453.65, 0.00), (224.99, 472.16), 43.09
M 0.00000 3 (389.04, 411.90, 0.00), (451.19, 87.26), 11.94
M 0.00000 4 (476.36, 368.90, 0.00), (300.37, 285.33), 46.55
M 0.00000 6 (32.28, 308.72, 0.00), (433.20, 266.72), 38.84
M 0.00000 8 (183.15, 26.01, 0.00), (121.55, 169.93), 47.87
M 0.00000 9 (311.32, 10.89, 0.00), (496.62, 87.15), 26.88
M 0.00000 10 (223.93, 122.46, 0.00), (369.07, 452.67), 15.11
M 0.00000 11 (228.02, 129.74, 0.00), (297.71, 161.83), 12.30
M 0.00000 12 (43.44, 303.04, 0.00), (77.39, 61.52), 38.40
M 0.00000 13 (257.90, 364.17, 0.00), (137.02, 38.13), 18.18
M 0.00000 14 (463.22, 318.56, 0.00), (491.04, 155.27), 35.45
M 0.00000 15 (490.95, 400.30, 0.00), (303.52, 244.46), 15.92
M 0.00000 16 (96.98, 429.97, 0.00), (131.32, 423.06), 11.83
M 0.00000 17 (360.56, 56.15, 0.00), (66.42, 194.50), 37.58
M 1.00000 0 (325.52, 225.48, 0.00), (233.64, 346.18), 40.09
M 1.00000 5 (168.78, 153.06, 0.00), (41.61, 310.38), 38.70
M 1.00000 7 (23.36, 448.99, 0.00), (227.12, 410.11), 45.66
M 2.43614 2 (224.99, 472.16, 0.00), (224.99, 472.16), 0.00
s 2.556838879 _18_ AGT  --- 0 cbr 512 [0 0 0 0] [energy 50.000000 ei 0.000 es 0.000 et 0.000 er 0.000] ------- [18:0 19:0 32 0] [0] 0 0
r 2.556838879 _18_ RTR  --- 0 cbr 512 [0 0 0 0] [energy 50.000000 ei 0.000 es 0.000 et 0.000 er 0.000] ------- [18:0 19:0 32 0] [0] 0 0
s 2.556838879 _18_ RTR  --- 0 AODV 52 [0 0 0 0] [energy 50.000000 ei 0.000 es 0.000 et 0.000 er 0.000] ------- [18:255 -1:255 30 0] [0x2 1 1 [19 0] [18 4]] (REQUEST)
s 2.556953879 _18_ MAC  --- 0 AODV 110 [0 ffffffff 12 800] [energy 50.000000 ei 0.000 es 0.000 et 0.000 er 0.000] ------- [18:255 -1:255 30 0] [0x2 1 1 [19 0] [18 4]] (REQUEST)
N -t 2.556954 -n 9 -e 48.720643
N -t 2.556955 -n 14 -e 48.720643
N -t 2.556955 -n 17 -e 48.720643
N -t 2.556955 -n 11 -e 48.720643
N -t 2.556955 -n 10 -e 48.720643
N -t 2.556955 -n 4 -e 48.720642
N -t 2.556955 -n 0 -e 48.720642
N -t 2.556955 -n 1 -e 48.720642
N -t 2.556955 -n 15 -e 48.720642
N -t 2.556955 -n 8 -e 48.720642
N -t 2.556955 -n 3 -e 48.720642
r 2.557834314 _9_ MAC  --- 0 AODV 52 [0 ffffffff 12 800] [energy 48.720643 ei 1.278 es 0.000 et 0.000 er 0.001] ------- [18:255 -1:255 30 0] [0x2 1 1 [19 0] [18 4]] (REQUEST)
r 2.557834646 _14_ MAC  --- 0 AODV 52 [0 ffffffff 12 800] [energy 48.720643 ei 1.278 es 0.000 et 0.000 er 0.001] ------- [18:255 -1:255 30 0] [0x2 1 1 [19 0] [18 4]] (REQUEST)
r 2.557834700 _17_ MAC  --- 0 AODV 52 [0 ffffffff 12 800] [energy 48.720643 ei 1.278 es 0.000 et 0.000 er 0.001] ------- [18:255 -1:255 30 0] [0x2 1 1 [19 0] [18 4]] (REQUEST)
r 2.557834820 _11_ MAC  --- 0 AODV 52 [0 ffffffff 12 800] [energy 48.720643 ei 1.278 es 0.000 et 0.000 er 0.001] ------- [18:255 -1:255 30 0] [0x2 1 1 [19 0] [18 4]] (REQUEST)
r 2.557834894 _10_ MAC  --- 0 AODV 52 [0 ffffffff 12 800] [energy 48.720643 ei 1.278 es 0.000 et 0.000 er 0.001] ------- [18:255 -1:255 30 0] [0x2 1 1 [19 0] [18 4]] (REQUEST)
r 2.557835025 _4_ MAC  --- 0 AODV 52 [0 ffffffff 12 800] [energy 48.720642 ei 1.278 es 0.000 et 0.000 er 0.001] ------- [18:255 -1:255 30 0] [0x2 1 1 [19 0] [18 4]] (REQUEST)
r 2.557835037 _0_ MAC  --- 0 AODV 52 [0 ffffffff 12 800] [energy 48.720642 ei 1.278 es 0.000 et 0.000 er 0.001] ------- [18:255 -1:255 30 0] [0x2 1 1 [19 0] [18 4]] (REQUEST)
r 2.557835131 _1_ MAC  --- 0 AODV 52 [0 ffffffff 12 800] [energy 48.720642 ei 1.278 es 0.000 et 0.000 er 0.001] ------- [18:255 -1:255 30 0] [0x2 1 1 [19 0] [18 4]] (REQUEST)
r 2.557835134 _15_ MAC  --- 0 AODV 52 [0 ffffffff 12 800] [energy 48.720642 ei 1.278 es 0.000 et 0.000 er 0.001] ------- [18:255 -1:255 30 0] [0x2 1 1 [19 0] [18 4]] (REQUEST)
r 2.557835180 _8_ MAC  --- 0 AODV 52 [0 ffffffff 12 800] [energy 48.720642 ei 1.278 es 0.000 et 0.000 er 0.001] ------- [18:255 -1:255 30 0] [0x2 1 1 [19 0] [18 4]] (REQUEST)
r 2.557835199 _3_ MAC  --- 0 AODV 52 [0 ffffffff 12 800] [energy 48.720642 ei 1.278 es 0.000 et 0.000 er 0.001] ------- [18:255 -1:255 30 0] [0x2 1 1 [19 0] [18 4]] (REQUEST)
r 2.557859314 _9_ RTR  --- 0 AODV 52 [0 ffffffff 12 800] [energy 48.720643 ei 1.278 es 0.000 et 0.000 er 0.001] ------- [18:255 -1:255 30 0] [0x2 1 1 [19 0] [18 4]] (REQUEST)
r 2.557859646 _14_ RTR  --- 0 AODV 52 [0 ffffffff 12 800] [energy 48.720643 ei 1.278 es 0.000 et 0.000 er 0.001] ------- [18:255 -1:255 30 0] [0x2 1 1 [19 0] [18 4]] (REQUEST)
r 2.557859700 _17_ RTR  --- 0 AODV 52 [0 ffffffff 12 800] [energy 48.720643 ei 1.278 es 0.000 et 0.000 er 0.001] ------- [18:255 -1:255 30 0] [0x2 1 1 [19 0] [18 4]] (REQUEST)
r 2.557859820 _11_ RTR  --- 0 AODV 52 [0 ffffffff 12 800] [energy 48.720643 ei 1.278 es 0.000 et 0.000 er 0.001] ------- [18:255 -1:255 30 0] [0x2 1 1 [19 0] [18 4]] (REQUEST)
r 2.557859894 _10_ RTR  --- 0 AODV 52 [0 ffffffff 12 800] [energy 48.720643 ei 1.278 es 0.000 et 0.000 er 0.001] ------- [18:255 -1:255 30 0] [0x2 1 1 [19 0] [18 4]] (REQUEST)
r 2.557860025 _4_ RTR  --- 0 AODV 52 [0 ffffffff 12 800] [energy 48.720642 ei 1.278 es 0.000 et 0.000 er 0.001] ------- [18:255 -1:255 30 0] [0x2 1 1 [19 0] [18 4]] (REQUEST)
r 2.557860037 _0_ RTR  --- 0 AODV 52 [0 ffffffff 12 800] [energy 48.720642 ei 1.278 es 0.000 et 0.000 er 0.001] ------- [18:255 -1:255 30 0] [0x2 1 1 [19 0] [18 4]] (REQUEST)
r 2.557860131 _1_ RTR  --- 0 AODV 52 [0 ffffffff 12 800] [energy 48.720642 ei 1.278 es 0.000 et 0.000 er 0.001] ------- [18:255 -1:255 30 0] [0x2 1 1 [19 0] [18 4]] (REQUEST)
r 2.557860134 _15_ RTR  --- 0 AODV 52 [0 ffffffff 12 800] [energy 48.720642 ei 1.278 es 0.000 et 0.000 er 0.001] ------- [18:255 -1:255 30 0] [0x2 1 1 [19 0] [18 4]] (REQUEST)
r 2.557860180 _8_ RTR  --- 0 AODV 52 [0 ffffffff 12 800] [energy 48.720642 ei 1.278 es 0.000 et 0.000 er 0.001] ------- [18:255 -1:255 30 0] [0x2 1 1 [19 0] [18 4]] (REQUEST)
r 2.557860199 _3_ RTR  --- 0 AODV 52 [0 ffffffff 12 800] [energy 48.720642 ei 1.278 es 0.000 et 0.000 er 0.001] ------- [18:255 -1:255 30 0] [0x2 1 1 [19 0] [18 4]] (REQUEST)
s 2.558288145 _3_ RTR  --- 0 AODV 52 [0 ffffffff 12 800] [energy 48.720642 ei 1.278 es 0.000 et 0.000 er 0.001] ------- [3:255 -1:255 29 0] [0x2 2 1 [19 0] [18 4]] (REQUEST)
s 2.558523145 _3_ MAC  --- 0 AODV 110 [0 ffffffff 3 800] [energy 48.720642 ei 1.278 es 0.000 et 0.000 er 0.001] ------- [3:255 -1:255 29 0] [0x2 2 1 [19 0] [18 4]] (REQUEST)
N -t 2.558523 -n 15 -e 48.719418
N -t 2.558523 -n 4 -e 48.719418
N -t 2.558523 -n 1 -e 48.719418
N -t 2.558524 -n 0 -e 48.719418
N -t 2.558524 -n 13 -e 48.719858
N -t 2.558524 -n 14 -e 48.719418
N -t 2.558524 -n 2 -e 48.719858
N -t 2.558524 -n 16 -e 48.719858
N -t 2.558524 -n 10 -e 48.719418
N -t 2.558524 -n 11 -e 48.719418
N -t 2.558524 -n 6 -e 48.719858
N -t 2.558524 -n 7 -e 48.719858
N -t 2.558524 -n 17 -e 48.719418
N -t 2.558524 -n 5 -e 48.719858
N -t 2.558524 -n 9 -e 48.719418
N -t 2.558524 -n 8 -e 48.719418
N -t 2.558524 -n 12 -e 48.719858
N -t 2.558524 -n 18 -e 48.717394
s 2.558740540 _9_ RTR  --- 0 AODV 52 [0 ffffffff 12 800] [energy 48.719418 ei 1.279 es 0.000 et 0.000 er 0.002] ------- [9:255 -1:255 29 0] [0x2 2 1 [19 0] [18 4]] (REQUEST)
r 2.559403362 _15_ MAC  --- 0 AODV 52 [0 ffffffff 3 800] [energy 48.719418 ei 1.279 es 0.000 et 0.000 er 0.002] ------- [3:255 -1:255 29 0] [0x2 2 1 [19 0] [18 4]] (REQUEST)
r 2.559403375 _4_ MAC  --- 0 AODV 52 [0 ffffffff 3 800] [energy 48.719418 ei 1.279 es 0.000 et 0.000 er 0.002] ------- [3:255 -1:255 29 0] [0x2 2 1 [19 0] [18 4]] (REQUEST)
r 2.559403419 _1_ MAC  --- 0 AODV 52 [0 ffffffff 3 800] [energy 48.719418 ei 1.279 es 0.000 et 0.000 er 0.002] ------- [3:255 -1:255 29 0] [0x2 2 1 [19 0] [18 4]] (REQUEST)
r 2.559403649 _0_ MAC  --- 0 AODV 52 [0 ffffffff 3 800] [energy 48.719418 ei 1.279 es 0.000 et 0.000 er 0.002] ------- [3:255 -1:255 29 0] [0x2 2 1 [19 0] [18 4]] (REQUEST)
r 2.559403694 _13_ MAC  --- 0 AODV 52 [0 ffffffff 3 800] [energy 48.719858 ei 1.279 es 0.000 et 0.000 er 0.001] ------- [3:255 -1:255 29 0] [0x2 2 1 [19 0] [18 4]] (REQUEST)
r 2.559403725 _14_ MAC  --- 0 AODV 52 [0 ffffffff 3 800] [energy 48.719418 ei 1.279 es 0.000 et 0.000 er 0.002] ------- [3:255 -1:255 29 0] [0x2 2 1 [19 0] [18 4]] (REQUEST)
r 2.559403786 _2_ MAC  --- 0 AODV 52 [0 ffffffff 3 800] [energy 48.719858 ei 1.279 es 0.000 et 0.000 er 0.001] ------- [3:255 -1:255 29 0] [0x2 2 1 [19 0] [18 4]] (REQUEST)
r 2.559404049 _16_ MAC  --- 0 AODV 52 [0 ffffffff 3 800] [energy 48.719858 ei 1.279 es 0.000 et 0.000 er 0.001] ------- [3:255 -1:255 29 0] [0x2 2 1 [19 0] [18 4]] (REQUEST)
r 2.559404053 _10_ MAC  --- 0 AODV 52 [0 ffffffff 3 800] [energy 48.719418 ei 1.279 es 0.000 et 0.000 er 0.002] ------- [3:255 -1:255 29 0] [0x2 2 1 [19 0] [18 4]] (REQUEST)
r 2.559404065 _11_ MAC  --- 0 AODV 52 [0 ffffffff 3 800] [energy 48.719418 ei 1.279 es 0.000 et 0.000 er 0.002] ------- [3:255 -1:255 29 0] [0x2 2 1 [19 0] [18 4]] (REQUEST)
r 2.559404067 _6_ MAC  --- 0 AODV 52 [0 ffffffff 3 800] [energy 48.719858 ei 1.279 es 0.000 et 0.000 er 0.001] ------- [3:255 -1:255 29 0] [0x2 2 1 [19 0] [18 4]] (REQUEST)
r 2.559404166 _7_ MAC  --- 0 AODV 52 [0 ffffffff 3 800] [energy 48.719858 ei 1.279 es 0.000 et 0.000 er 0.001] ------- [3:255 -1:255 29 0] [0x2 2 1 [19 0] [18 4]] (REQUEST)
r 2.559404177 _17_ MAC  --- 0 AODV 52 [0 ffffffff 3 800] [energy 48.719418 ei 1.279 es 0.000 et 0.000 er 0.002] ------- [3:255 -1:255 29 0] [0x2 2 1 [19 0] [18 4]] (REQUEST)
r 2.559404213 _5_ MAC  --- 0 AODV 52 [0 ffffffff 3 800] [energy 48.719858 ei 1.279 es 0.000 et 0.000 er 0.001] ------- [3:255 -1:255 29 0] [0x2 2 1 [19 0] [18 4]] (REQUEST)
r 2.559404296 _9_ MAC  --- 0 AODV 52 [0 ffffffff 3 800] [energy 48.719418 ei 1.279 es 0.000 et 0.000 er 0.002] ------- [3:255 -1:255 29 0] [0x2 2 1 [19 0] [18 4]] (REQUEST)
r 2.559404331 _8_ MAC  --- 0 AODV 52 [0 ffffffff 3 800] [energy 48.719418 ei 1.279 es 0.000 et 0.000 er 0.002] ------- [3:255 -1:255 29 0] [0x2 2 1 [19 0] [18 4]] (REQUEST)
r 2.559404414 _12_ MAC  --- 0 AODV 52 [0 ffffffff 3 800] [energy 48.719858 ei 1.279 es 0.000 et 0.000 er 0.001] ------- [3:255 -1:255 29 0] [0x2 2 1 [19 0] [18 4]] (REQUEST)
r 2.559404465 _18_ MAC  --- 0 AODV 52 [0 ffffffff 3 800] [energy 48.717394 ei 1.279 es 0.000 et 0.003 er 0.001] ------- [3:255 -1:255 29 0] [0x2 2 1 [19 0] [18 4]] (REQUEST)
r 2.559428362 _15_ RTR  --- 0 AODV 52 [0 ffffffff 3 800] [energy 48.719418 ei 1.279 es 0.000 et 0.000 er 0.002] ------- [3:255 -1:255 29 0] [0x2 2 1 [19 0] [18 4]] (REQUEST)
r 2.559428375 _4_ RTR  --- 0 AODV 52 [0 ffffffff 3 800] [energy 48.719418 ei 1.279 es 0.000 et 0.000 er 0.002] ------- [3:255 -1:255 29 0] [0x2 2 1 [19 0] [18 4]] (REQUEST)
r 2.559428419 _1_ RTR  --- 0 AODV 52 [0 ffffffff 3 800] [energy 48.719418 ei 1.279 es 0.000 et 0.000 er 0.002] ------- [3:255 -1:255 29 0] [0x2 2 1 [19 0] [18 4]] (REQUEST)
r 2.559428649 _0_ RTR  --- 0 AODV 52 [0 ffffffff 3 800] [energy 48.719418 ei 1.279 es 0.000 et 0.000 er 0.002] ------- [3:255 -1:255 29 0] [0x2 2 1 [19 0] [18 4]] (REQUEST)
r 2.559428694 _13_ RTR  --- 0 AODV 52 [0 ffffffff 3 800] [energy 48.719858 ei 1.279 es 0.000 et 0.000 er 0.001] ------- [3:255 -1:255 29 0] [0x2 2 1 [19 0] [18 4]] (REQUEST)
r 2.559428725 _14_ RTR  --- 0 AODV 52 [0 ffffffff 3 800] [energy 48.719418 ei 1.279 es 0.000 et 0.000 er 0.002] ------- [3:255 -1:255 29 0] [0x2 2 1 [19 0] [18 4]] (REQUEST)
r 2.559428786 _2_ RTR  --- 0 AODV 52 [0 ffffffff 3 800] [energy 48.719858 ei 1.279 es 0.000 et 0.000 er 0.001] ------- [3:255 -1:255 29 0] [0x2 2 1 [19 0] [18 4]] (REQUEST)
r 2.559429049 _16_ RTR  --- 0 AODV 52 [0 ffffffff 3 800] [energy 48.719858 ei 1.279 es 0.000 et 0.000 er 0.001] ------- [3:255 -1:255 29 0] [0x2 2 1 [19 0] [18 4]] (REQUEST)
r 2.559429053 _10_ RTR  --- 0 AODV 52 [0 ffffffff 3 800] [energy 48.719418 ei 1.279 es 0.000 et 0.000 er 0.002] ------- [3:255 -1:255 29 0] [0x2 2 1 [19 0] [18 4]] (REQUEST)
r 2.559429065 _11_ RTR  --- 0 AODV 52 [0 ffffffff 3 800] [energy 48.719418 ei 1.279 es 0.000 et 0.000 er 0.002] ------- [3:255 -1:255 29 0] [0x2 2 1 [19 0] [18 4]] (REQUEST)
r 2.559429067 _6_ RTR  --- 0 AODV 52 [0 ffffffff 3 800] [energy 48.719858 ei 1.279 es 0.000 et 0.000 er 0.001] ------- [3:255 -1:255 29 0] [0x2 2 1 [19 0] [18 4]] (REQUEST)
r 2.559429166 _7_ RTR  --- 0 AODV 52 [0 ffffffff 3 800] [energy 48.719858 ei 1.279 es 0.000 et 0.000 er 0.001] ------- [3:255 -1:255 29 0] [0x2 2 1 [19 0] [18 4]] (REQUEST)
r 2.559429177 _17_ RTR  --- 0 AODV 52 [0 ffffffff 3 800] [energy 48.719418 ei 1.279 es 0.000 et 0.000 er 0.002] ------- [3:255 -1:255 29 0] [0x2 2 1 [19 0] [18 4]] (REQUEST)
r 2.559429213 _5_ RTR  --- 0 AODV 52 [0 ffffffff 3 800] [energy 48.719858 ei 1.279 es 0.000 et 0.000 er 0.001] ------- [3:255 -1:255 29 0] [0x2 2 1 [19 0] [18 4]] (REQUEST)
r 2.559429296 _9_ RTR  --- 0 AODV 52 [0 ffffffff 3 800] [energy 48.719418 ei 1.279 es 0.000 et 0.000 er 0.002] ------- [3:255 -1:255 29 0] [0x2 2 1 [19 0] [18 4]] (REQUEST)
r 2.559429331 _8_ RTR  --- 0 AODV 52 [0 ffffffff 3 800] [energy 48.719418 ei 1.279 es 0.000 et 0.000 er 0.002] ------- [3:255 -1:255 29 0] [0x2 2 1 [19 0] [18 4]] (REQUEST)
r 2.559429414 _12_ RTR  --- 0 AODV 52 [0 ffffffff 3 800] [energy 48.719858 ei 1.279 es 0.000 et 0.000 er 0.001] ------- [3:255 -1:255 29 0] [0x2 2 1 [19 0] [18 4]] (REQUEST)
r 2.559429465 _18_ RTR  --- 0 AODV 52 [0 ffffffff 3 800] [energy 48.717394 ei 1.279 es 0.000 et 0.003 er 0.001] ------- [3:255 -1:255 29 0] [0x2 2 1 [19 0] [18 4]] (REQUEST)
s 2.559501634 _8_ RTR  --- 0 AODV 52 [0 ffffffff 12 800] [energy 48.719418 ei 1.279 es 0.000 et 0.000 er 0.002] ------- [8:255 -1:255 29 0] [0x2 2 1 [19 0] [18 4]] (REQUEST)
s 2.559814296 _9_ MAC  --- 0 AODV 110 [0 ffffffff 9 800] [energy 48.719418 ei 1.279 es 0.000 et 0.000 er 0.002] ------- [9:255 -1:255 29 0] [0x2 2 1 [19 0] [18 4]] (REQUEST)
N -t 2.559815 -n 17 -e 48.718333
N -t 2.559815 -n 18 -e 48.716309
N -t 2.559815 -n 11 -e 48.718333
N -t 2.559815 -n 10 -e 48.718333
N -t 2.559815 -n 14 -e 48.718332
N -t 2.559815 -n 0 -e 48.718332
N -t 2.559815 -n 8 -e 48.718332
N -t 2.559815 -n 4 -e 48.718332
N -t 2.559815 -n 5 -e 48.718772
N -t 2.559815 -n 1 -e 48.718332
N -t 2.559815 -n 13 -e 48.718772
N -t 2.559815 -n 3 -e 48.716308
N -t 2.559815 -n 15 -e 48.718332
N -t 2.559815 -n 6 -e 48.718772
N -t 2.559815 -n 12 -e 48.718772
s 2.560206042 _4_ RTR  --- 0 AODV 52 [0 ffffffff 12 800] [energy 48.718332 ei 1.279 es 0.000 et 0.000 er 0.003] ------- [4:255 -1:255 29 0] [0x2 2 1 [19 0] [18 4]] (REQUEST)
s 2.560370438 _16_ RTR  --- 0 AODV 52 [0 ffffffff 3 800] [energy 48.719858 ei 1.279 es 0.000 et 0.000 er 0.001] ------- [16:255 -1:255 28 0] [0x2 3 1 [19 0] [18 4]] (REQUEST)
s 2.560625438 _16_ MAC  --- 0 AODV 110 [0 ffffffff 10 800] [energy 48.719858 ei 1.279 es 0.000 et 0.000 er 0.001] ------- [16:255 -1:255 28 0] [0x2 3 1 [19 0] [18 4]] (REQUEST)
N -t 2.560626 -n 7 -e 48.718367
N -t 2.560626 -n 2 -e 48.718367
N -t 2.560626 -n 6 -e 48.717962
D 2.560625857 _6_ MAC  COL 0 AODV 110 [0 ffffffff 9 800] [energy 48.717962 ei 1.279 es 0.000 et 0.000 er 0.003] ------- [9:255 -1:255 29 0] [0x2 2 1 [19 0] [18 4]] (REQUEST)
N -t 2.560626 -n 19 -e 48.718807
N -t 2.560626 -n 13 -e 48.717962
D 2.560625954 _13_ MAC  COL 0 AODV 110 [0 ffffffff 9 800] [energy 48.717962 ei 1.279 es 0.000 et 0.000 er 0.003] ------- [9:255 -1:255 29 0] [0x2 2 1 [19 0] [18 4]] (REQUEST)
N -t 2.560626 -n 0 -e 48.717521
D 2.560626168 _0_ MAC  COL 0 AODV 110 [0 ffffffff 9 800] [energy 48.717521 ei 1.279 es 0.000 et 0.000 er 0.003] ------- [9:255 -1:255 29 0] [0x2 2 1 [19 0] [18 4]] (REQUEST)
N -t 2.560626 -n 1 -e 48.717521
D 2.560626172 _1_ MAC  COL 0 AODV 110 [0 ffffffff 9 800] [energy 48.717521 ei 1.279 es 0.000 et 0.000 er 0.003] ------- [9:255 -1:255 29 0] [0x2 2 1 [19 0] [18 4]] (REQUEST)
N -t 2.560626 -n 5 -e 48.717961
D 2.560626185 _5_ MAC  COL 0 AODV 110 [0 ffffffff 9 800] [energy 48.717961 ei 1.279 es 0.000 et 0.000 er 0.003] ------- [9:255 -1:255 29 0] [0x2 2 1 [19 0] [18 4]] (REQUEST)
N -t 2.560626 -n 12 -e 48.717962
D 2.560626202 _12_ MAC  COL 0 AODV 110 [0 ffffffff 9 800] [energy 48.717962 ei 1.279 es 0.000 et 0.000 er 0.003] ------- [9:255 -1:255 29 0] [0x2 2 1 [19 0] [18 4]] (REQUEST)
N -t 2.560626 -n 4 -e 48.717521
D 2.560626319 _4_ MAC  COL 0 AODV 110 [0 ffffffff 9 800] [energy 48.717521 ei 1.279 es 0.000 et 0.000 er 0.003] ------- [9:255 -1:255 29 0] [0x2 2 1 [19 0] [18 4]] (REQUEST)
N -t 2.560626 -n 3 -e 48.715497
D 2.560626343 _3_ MAC  COL 0 AODV 110 [0 ffffffff 9 800] [energy 48.715497 ei 1.279 es 0.000 et 0.003 er 0.003] ------- [9:255 -1:255 29 0] [0x2 2 1 [19 0] [18 4]] (REQUEST)
N -t 2.560626 -n 8 -e 48.717521
D 2.560626389 _8_ MAC  COL 0 AODV 110 [0 ffffffff 9 800] [energy 48.717521 ei 1.279 es 0.000 et 0.000 er 0.003] ------- [9:255 -1:255 29 0] [0x2 2 1 [19 0] [18 4]] (REQUEST)
N -t 2.560626 -n 10 -e 48.717521
D 2.560626401 _10_ MAC  COL 0 AODV 110 [0 ffffffff 9 800] [energy 48.717521 ei 1.279 es 0.000 et 0.000 er 0.003] ------- [9:255 -1:255 29 0] [0x2 2 1 [19 0] [18 4]] (REQUEST)
N -t 2.560626 -n 11 -e 48.717521
N -t 2.560627 -n 15 -e 48.717521
D 2.560626560 _15_ MAC  COL 0 AODV 110 [0 ffffffff 9 800] [energy 48.717521 ei 1.279 es 0.000 et 0.000 er 0.003] ------- [9:255 -1:255 29 0] [0x2 2 1 [19 0] [18 4]] (REQUEST)
N -t 2.560627 -n 17 -e 48.717521
r 2.560694689 _17_ MAC  --- 0 AODV 52 [0 ffffffff 9 800] [energy 48.717521 ei 1.279 es 0.000 et 0.000 er 0.003] ------- [9:255 -1:255 29 0] [0x2 2 1 [19 0] [18 4]] (REQUEST)
r 2.560694731 _18_ MAC  --- 0 AODV 52 [0 ffffffff 9 800] [energy 48.716309 ei 1.279 es 0.000 et 0.003 er 0.002] ------- [9:255 -1:255 29 0] [0x2 2 1 [19 0] [18 4]] (REQUEST)
r 2.560694825 _11_ MAC  --- 0 AODV 52 [0 ffffffff 9 800] [energy 48.717521 ei 1.279 es 0.000 et 0.000 er 0.003] ------- [9:255 -1:255 29 0] [0x2 2 1 [19 0] [18 4]] (REQUEST)
r 2.560695023 _14_ MAC  --- 0 AODV 52 [0 ffffffff 9 800] [energy 48.718332 ei 1.279 es 0.000 et 0.000 er 0.003] ------- [9:255 -1:255 29 0] [0x2 2 1 [19 0] [18 4]] (REQUEST)
r 2.560719689 _17_ RTR  --- 0 AODV 52 [0 ffffffff 9 800] [energy 48.717521 ei 1.279 es 0.000 et 0.000 er 0.003] ------- [9:255 -1:255 29 0] [0x2 2 1 [19 0] [18 4]] (REQUEST)
r 2.560719731 _18_ RTR  --- 0 AODV 52 [0 ffffffff 9 800] [energy 48.716309 ei 1.279 es 0.000 et 0.003 er 0.002] ------- [9:255 -1:255 29 0] [0x2 2 1 [19 0] [18 4]] (REQUEST)
r 2.560719825 _11_ RTR  --- 0 AODV 52 [0 ffffffff 9 800] [energy 48.717521 ei 1.279 es 0.000 et 0.000 er 0.003] ------- [9:255 -1:255 29 0] [0x2 2 1 [19 0] [18 4]] (REQUEST)
r 2.560720023 _14_ RTR  --- 0 AODV 52 [0 ffffffff 9 800] [energy 48.718332 ei 1.279 es 0.000 et 0.000 er 0.003] ------- [9:255 -1:255 29 0] [0x2 2 1 [19 0] [18 4]] (REQUEST)
s 2.560950922 _1_ RTR  --- 0 AODV 52 [0 ffffffff 12 800] [energy 48.717521 ei 1.279 es 0.000 et 0.000 er 0.003] ------- [1:255 -1:255 29 0] [0x2 2 1 [19 0] [18 4]] (REQUEST)
s 2.560989437 _11_ RTR  --- 0 AODV 52 [0 ffffffff 12 800] [energy 48.717521 ei 1.279 es 0.000 et 0.000 er 0.003] ------- [11:255 -1:255 29 0] [0x2 2 1 [19 0] [18 4]] (REQUEST)
s 2.561176838 _2_ RTR  --- 0 AODV 52 [0 ffffffff 3 800] [energy 48.718367 ei 1.280 es 0.000 et 0.000 er 0.002] ------- [2:255 -1:255 28 0] [0x2 3 1 [19 0] [18 4]] (REQUEST)
r 2.561505556 _7_ MAC  --- 0 AODV 52 [0 ffffffff 10 800] [energy 48.718367 ei 1.280 es 0.000 et 0.000 er 0.002] ------- [16:255 -1:255 28 0] [0x2 3 1 [19 0] [18 4]] (REQUEST)
r 2.561505803 _2_ MAC  --- 0 AODV 52 [0 ffffffff 10 800] [energy 48.718367 ei 1.280 es 0.000 et 0.000 er 0.002] ------- [16:255 -1:255 28 0] [0x2 3 1 [19 0] [18 4]] (REQUEST)
D 2.561505857 _6_ MAC  COL 0 AODV 110 [0 ffffffff 10 800] [energy 48.717962 ei 1.279 es 0.000 et 0.000 er 0.003] ------- [16:255 -1:255 28 0] [0x2 3 1 [19 0] [18 4]] (REQUEST)
r 2.561505930 _19_ MAC  --- 0 AODV 52 [0 ffffffff 10 800] [energy 48.718807 ei 1.280 es 0.000 et 0.000 er 0.001] ------- [16:255 -1:255 28 0] [0x2 3 1 [19 0] [18 4]] (REQUEST)
D 2.561505954 _13_ MAC  COL 0 AODV 110 [0 ffffffff 10 800] [energy 48.717962 ei 1.279 es 0.000 et 0.000 er 0.003] ------- [16:255 -1:255 28 0] [0x2 3 1 [19 0] [18 4]] (REQUEST)
D 2.561506168 _0_ MAC  COL 0 AODV 110 [0 ffffffff 10 800] [energy 48.717521 ei 1.279 es 0.000 et 0.000 er 0.003] ------- [16:255 -1:255 28 0] [0x2 3 1 [19 0] [18 4]] (REQUEST)
D 2.561506172 _1_ MAC  COL 0 AODV 110 [0 ffffffff 10 800] [energy 48.717521 ei 1.279 es 0.000 et 0.000 er 0.003] ------- [16:255 -1:255 28 0] [0x2 3 1 [19 0] [18 4]] (REQUEST)
D 2.561506185 _5_ MAC  COL 0 AODV 110 [0 ffffffff 10 800] [energy 48.717961 ei 1.279 es 0.000 et 0.000 er 0.003] ------- [16:255 -1:255 28 0] [0x2 3 1 [19 0] [18 4]] (REQUEST)
D 2.561506202 _12_ MAC  COL 0 AODV 110 [0 ffffffff 10 800] [energy 48.717962 ei 1.279 es 0.000 et 0.000 er 0.003] ------- [16:255 -1:255 28 0] [0x2 3 1 [19 0] [18 4]] (REQUEST)
D 2.561506319 _4_ MAC  COL 0 AODV 110 [0 ffffffff 10 800] [energy 48.717521 ei 1.279 es 0.000 et 0.000 er 0.003] ------- [16:255 -1:255 28 0] [0x2 3 1 [19 0] [18 4]] (REQUEST)
D 2.561506343 _3_ MAC  COL 0 AODV 110 [0 ffffffff 10 800] [energy 48.715497 ei 1.279 es 0.000 et 0.003 er 0.003] ------- [16:255 -1:255 28 0] [0x2 3 1 [19 0] [18 4]] (REQUEST)
D 2.561506389 _8_ MAC  COL 0 AODV 110 [0 ffffffff 10 800] [energy 48.717521 ei 1.279 es 0.000 et 0.000 er 0.003] ------- [16:255 -1:255 28 0] [0x2 3 1 [19 0] [18 4]] (REQUEST)
D 2.561506401 _10_ MAC  COL 0 AODV 110 [0 ffffffff 10 800] [energy 48.717521 ei 1.279 es 0.000 et 0.000 er 0.003] ------- [16:255 -1:255 28 0] [0x2 3 1 [19 0] [18 4]] (REQUEST)
D 2.561506560 _15_ MAC  COL 0 AODV 110 [0 ffffffff 10 800] [energy 48.717521 ei 1.279 es 0.000 et 0.000 er 0.003] ------- [16:255 -1:255 28 0] [0x2 3 1 [19 0] [18 4]] (REQUEST)
r 2.561530556 _7_ RTR  --- 0 AODV 52 [0 ffffffff 10 800] [energy 48.718367 ei 1.280 es 0.000 et 0.000 er 0.002] ------- [16:255 -1:255 28 0] [0x2 3 1 [19 0] [18 4]] (REQUEST)
r 2.561530803 _2_ RTR  --- 0 AODV 52 [0 ffffffff 10 800] [energy 48.718367 ei 1.280 es 0.000 et 0.000 er 0.002] ------- [16:255 -1:255 28 0] [0x2 3 1 [19 0] [18 4]] (REQUEST)
r 2.561530930 _19_ RTR  --- 0 AODV 52 [0 ffffffff 10 800] [energy 48.718807 ei 1.280 es 0.000 et 0.000 er 0.001] ------- [16:255 -1:255 28 0] [0x2 3 1 [19 0] [18 4]] (REQUEST)
s 2.561530930 _19_ RTR  --- 0 AODV 44 [0 0 0 0] [energy 48.718807 ei 1.280 es 0.000 et 0.000 er 0.001] ------- [19:255 18:255 30 16] [0x4 1 [19 4] 10.000000] (REPLY)
s 2.561885930 _19_ MAC  --- 0 ARP 86 [0 ffffffff 13 806] [energy 48.718807 ei 1.280 es 0.000 et 0.000 er 0.001] ------- [REQUEST 19/19 0/16]
N -t 2.561886 -n 7 -e 48.717489
N -t 2.561886 -n 16 -e 48.715465
N -t 2.561887 -n 2 -e 48.717489
N -t 2.561887 -n 6 -e 48.717083
N -t 2.561887 -n 12 -e 48.717083
N -t 2.561887 -n 13 -e 48.717083
N -t 2.561887 -n 5 -e 48.717083
N -t 2.561887 -n 0 -e 48.716643
N -t 2.561887 -n 1 -e 48.716643
N -t 2.561887 -n 8 -e 48.716643
s 2.562010093 _5_ RTR  --- 0 AODV 52 [0 ffffffff 3 800] [energy 48.717083 ei 1.280 es 0.000 et 0.000 er 0.003] ------- [5:255 -1:255 28 0] [0x2 3 1 [19 0] [18 4]] (REQUEST)
s 2.562271380 _14_ RTR  --- 0 AODV 52 [0 ffffffff 12 800] [energy 48.718332 ei 1.279 es 0.000 et 0.000 er 0.003] ------- [14:255 -1:255 29 0] [0x2 2 1 [19 0] [18 4]] (REQUEST)
s 2.562360319 _4_ MAC  --- 0 AODV 110 [0 ffffffff 4 800] [energy 48.717521 ei 1.279 es 0.000 et 0.000 er 0.003] ------- [4:255 -1:255 29 0] [0x2 2 1 [19 0] [18 4]] (REQUEST)
N -t 2.562360 -n 1 -e 48.715978
D 2.562360466 _1_ MAC  COL 0 ARP 86 [0 ffffffff 13 806] [energy 48.715978 ei 1.279 es 0.000 et 0.000 er 0.005] ------- [REQUEST 19/19 0/16]
N -t 2.562361 -n 3 -e 48.714190
N -t 2.562361 -n 0 -e 48.715977
D 2.562360624 _0_ MAC  COL 0 ARP 86 [0 ffffffff 13 806] [energy 48.715977 ei 1.279 es 0.000 et 0.000 er 0.005] ------- [REQUEST 19/19 0/16]
N -t 2.562361 -n 15 -e 48.716214
N -t 2.562361 -n 13 -e 48.716417
D 2.562360742 _13_ MAC  COL 0 ARP 86 [0 ffffffff 13 806] [energy 48.716417 ei 1.280 es 0.000 et 0.000 er 0.004] ------- [REQUEST 19/19 0/16]
N -t 2.562361 -n 14 -e 48.716620
N -t 2.562361 -n 10 -e 48.716214
N -t 2.562361 -n 11 -e 48.716214
N -t 2.562361 -n 2 -e 48.716822
D 2.562361022 _2_ MAC  COL 0 ARP 86 [0 ffffffff 13 806] [energy 48.716822 ei 1.280 es 0.000 et 0.000 er 0.003] ------- [REQUEST 19/19 0/16]
N -t 2.562361 -n 6 -e 48.716417
D 2.562361113 _6_ MAC  COL 0 ARP 86 [0 ffffffff 13 806] [energy 48.716417 ei 1.280 es 0.000 et 0.000 er 0.004] ------- [REQUEST 19/19 0/16]
N -t 2.562361 -n 17 -e 48.716213
N -t 2.562361 -n 16 -e 48.714798
N -t 2.562361 -n 5 -e 48.716417
D 2.562361203 _5_ MAC  COL 0 ARP 86 [0 ffffffff 13 806] [energy 48.716417 ei 1.280 es 0.000 et 0.000 er 0.004] ------- [REQUEST 19/19 0/16]
N -t 2.562361 -n 9 -e 48.714595
N -t 2.562361 -n 8 -e 48.715977
D 2.562361300 _8_ MAC  COL 0 ARP 86 [0 ffffffff 13 806] [energy 48.715977 ei 1.279 es 0.000 et 0.000 er 0.005] ------- [REQUEST 19/19 0/16]
N -t 2.562361 -n 7 -e 48.716822
N -t 2.562361 -n 12 -e 48.716417
D 2.562361422 _12_ MAC  COL 0 ARP 86 [0 ffffffff 13 806] [energy 48.716417 ei 1.280 es 0.000 et 0.000 er 0.004] ------- [REQUEST 19/19 0/16]
N -t 2.562361 -n 18 -e 48.714595
r 2.562574309 _7_ MAC  --- 0 ARP 28 [0 ffffffff 13 806] [energy 48.716822 ei 1.280 es 0.000 et 0.000 er 0.003] ------- [REQUEST 19/19 0/16]
r 2.562574423 _16_ MAC  --- 0 ARP 28 [0 ffffffff 13 806] [energy 48.714798 ei 1.280 es 0.000 et 0.003 er 0.002] ------- [REQUEST 19/19 0/16]
s 2.562916576 _7_ RTR  --- 0 AODV 52 [0 ffffffff 3 800] [energy 48.716822 ei 1.280 es 0.000 et 0.000 er 0.003] ------- [7:255 -1:255 28 0] [0x2 3 1 [19 0] [18 4]] (REQUEST)
D 2.563240466 _1_ MAC  COL 0 AODV 110 [0 ffffffff 4 800] [energy 48.715978 ei 1.279 es 0.000 et 0.000 er 0.005] ------- [4:255 -1:255 29 0] [0x2 2 1 [19 0] [18 4]] (REQUEST)
r 2.563240550 _3_ MAC  --- 0 AODV 52 [0 ffffffff 4 800] [energy 48.714190 ei 1.279 es 0.000 et 0.003 er 0.003] ------- [4:255 -1:255 29 0] [0x2 2 1 [19 0] [18 4]] (REQUEST)
D 2.563240624 _0_ MAC  COL 0 AODV 110 [0 ffffffff 4 800] [energy 48.715977 ei 1.279 es 0.000 et 0.000 er 0.005] ------- [4:255 -1:255 29 0] [0x2 2 1 [19 0] [18 4]] (REQUEST)
r 2.563240676 _15_ MAC  --- 0 AODV 52 [0 ffffffff 4 800] [energy 48.716214 ei 1.279 es 0.000 et 0.000 er 0.004] ------- [4:255 -1:255 29 0] [0x2 2 1 [19 0] [18 4]] (REQUEST)
D 2.563240742 _13_ MAC  COL 0 AODV 110 [0 ffffffff 4 800] [energy 48.716417 ei 1.280 es 0.000 et 0.000 er 0.004] ------- [4:255 -1:255 29 0] [0x2 2 1 [19 0] [18 4]] (REQUEST)
r 2.563240790 _14_ MAC  --- 0 AODV 52 [0 ffffffff 4 800] [energy 48.716620 ei 1.280 es 0.000 et 0.000 er 0.004] ------- [4:255 -1:255 29 0] [0x2 2 1 [19 0] [18 4]] (REQUEST)
r 2.563241004 _10_ MAC  --- 0 AODV 52 [0 ffffffff 4 800] [energy 48.716214 ei 1.279 es 0.000 et 0.000 er 0.004] ------- [4:255 -1:255 29 0] [0x2 2 1 [19 0] [18 4]] (REQUEST)
r 2.563241011 _11_ MAC  --- 0 AODV 52 [0 ffffffff 4 800] [energy 48.716214 ei 1.279 es 0.000 et 0.000 er 0.004] ------- [4:255 -1:255 29 0] [0x2 2 1 [19 0] [18 4]] (REQUEST)
D 2.563241022 _2_ MAC  COL 0 AODV 110 [0 ffffffff 4 800] [energy 48.716822 ei 1.280 es 0.000 et 0.000 er 0.003] ------- [4:255 -1:255 29 0] [0x2 2 1 [19 0] [18 4]] (REQUEST)
D 2.563241113 _6_ MAC  COL 0 AODV 110 [0 ffffffff 4 800] [energy 48.716417 ei 1.280 es 0.000 et 0.000 er 0.004] ------- [4:255 -1:255 29 0] [0x2 2 1 [19 0] [18 4]] (REQUEST)
r 2.563241120 _17_ MAC  --- 0 AODV 52 [0 ffffffff 4 800] [energy 48.716213 ei 1.279 es 0.000 et 0.000 er 0.004] ------- [4:255 -1:255 29 0] [0x2 2 1 [19 0] [18 4]] (REQUEST)
D 2.563241203 _5_ MAC  COL 0 AODV 110 [0 ffffffff 4 800] [energy 48.716417 ei 1.280 es 0.000 et 0.000 er 0.004] ------- [4:255 -1:255 29 0] [0x2 2 1 [19 0] [18 4]] (REQUEST)
r 2.563241255 _9_ MAC  --- 0 AODV 52 [0 ffffffff 4 800] [energy 48.714595 ei 1.280 es 0.000 et 0.003 er 0.003] ------- [4:255 -1:255 29 0] [0x2 2 1 [19 0] [18 4]] (REQUEST)
D 2.563241300 _8_ MAC  COL 0 AODV 110 [0 ffffffff 4 800] [energy 48.715977 ei 1.279 es 0.000 et 0.000 er 0.005] ------- [4:255 -1:255 29 0] [0x2 2 1 [19 0] [18 4]] (REQUEST)
D 2.563241422 _12_ MAC  COL 0 AODV 110 [0 ffffffff 4 800] [energy 48.716417 ei 1.280 es 0.000 et 0.000 er 0.004] ------- [4:255 -1:255 29 0] [0x2 2 1 [19 0] [18 4]] (REQUEST)
r 2.563241465 _18_ MAC  --- 0 AODV 52 [0 ffffffff 4 800] [energy 48.714595 ei 1.280 es 0.000 et 0.003 er 0.003] ------- [4:255 -1:255 29 0] [0x2 2 1 [19 0] [18 4]] (REQUEST)
r 2.563265550 _3_ RTR  --- 0 AODV 52 [0 ffffffff 4 800] [energy 48.714190 ei 1.279 es 0.000 et 0.003 er 0.003] ------- [4:255 -1:255 29 0] [0x2 2 1 [19 0] [18 4]] (REQUEST)
r 2.563265676 _15_ RTR  --- 0 AODV 52 [0 ffffffff 4 800] [energy 48.716214 ei 1.279 es 0.000 et 0.000 er 0.004] ------- [4:255 -1:255 29 0] [0x2 2 1 [19 0] [18 4]] (REQUEST)
r 2.563265790 _14_ RTR  --- 0 AODV 52 [0 ffffffff 4 800] [energy 48.716620 ei 1.280 es 0.000 et 0.000 er 0.004] ------- [4:255 -1:255 29 0] [0x2 2 1 [19 0] [18 4]] (REQUEST)
r 2.563266004 _10_ RTR  --- 0 AODV 52 [0 ffffffff 4 800] [energy 48.716214 ei 1.279 es 0.000 et 0.000 er 0.004] ------- [4:255 -1:255 29 0] [0x2 2 1 [19 0] [18 4]] (REQUEST)
r 2.563266011 _11_ RTR  --- 0 AODV 52 [0 ffffffff 4 800] [energy 48.716214 ei 1.279 es 0.000 et 0.000 er 0.004] ------- [4:255 -1:255 29 0] [0x2 2 1 [19 0] [18 4]] (REQUEST)
r 2.563266120 _17_ RTR  --- 0 AODV 52 [0 ffffffff 4 800] [energy 48.716213 ei 1.279 es 0.000 et 0.000 er 0.004] ------- [4:255 -1:255 29 0] [0x2 2 1 [19 0] [18 4]] (REQUEST)
r 2.563266255 _9_ RTR  --- 0 AODV 52 [0 ffffffff 4 800] [energy 48.714595 ei 1.280 es 0.000 et 0.003 er 0.003] ------- [4:255 -1:255 29 0] [0x2 2 1 [19 0] [18 4]] (REQUEST)
r 2.563266465 _18_ RTR  --- 0 AODV 52 [0 ffffffff 4 800] [energy 48.714595 ei 1.280 es 0.000 et 0.003 er 0.003] ------- [4:255 -1:255 29 0] [0x2 2 1 [19 0] [18 4]] (REQUEST)
s 2.563391011 _11_ MAC  --- 0 AODV 110 [0 ffffffff b 800] [energy 48.716214 ei 1.279 es 0.000 et 0.000 er 0.004] ------- [11:255 -1:255 29 0] [0x2 2 1 [19 0] [18 4]] (REQUEST)
N -t 2.563391 -n 10 -e 48.715259
N -t 2.563391 -n 17 -e 48.715258
N -t 2.563391 -n 8 -e 48.715022
N -t 2.563391 -n 0 -e 48.715022
N -t 2.563391 -n 5 -e 48.715462